Siesta Version:                                        siesta-3.2-pl-4
Architecture  : i686-pc-linux-gnu--unknown
Compiler flags: f95 -g -O2
SERIAL version

* Running in serial mode
>> Start of run:   4-MAY-2014  19:11:25

                           ***********************       
                           *  WELCOME TO SIESTA  *       
                           ***********************       

reinit: Reading from standard input
************************** Dump of input data file ****************************
SystemName solid
SystemLabel solid
NumberOfAtoms 1
SpinPolarized .true.
#FixSpin .true.
#TotalSpin
NumberOfSpecies 1
%block DM.InitSpin #https://www.mail-archive.com/siesta-l@listserv.uam.es/msg04232.html
  1 +5.      # Atom index, spin, theta, phi (deg)
%endblock DM.InitSpin
XC.functional GGA
XC.authors PBE
MD.TypeOfRun         CG
MD.NumCGsteps        100
MD.MaxCGDispl         0.2  Bohr
MD.MaxForceTol        0.04 eV/Ang
#MD.VariableCell .true.
#MD.UseSaveXV	.true.
#WriteCoorStep .true.
#%block Ps.lmax
#  Si     2
#  O     2
#%endblock Ps.lmax
%block ChemicalSpeciesLabel
  1   26  Fe
%endblock ChemicalSpeciesLabel
#%block PAO.Basis                 # Define Basis set
#C           2                    # Species label, number of l-shells
# n=2   0   1                         # n, l, Nzeta
#   4.088
#   1.000
# n=2   1   1                       # n, l, Nzeta, Polarization, NzetaPol
#   4.870
#   1.000
#%endblock PAO.Basis
PAO.BasisSize       DZP
PAO.EnergyShift     65 meV
#PAO.SplitTailNorm	true
#PAO.SoftDefault		true
#PAO.OldStylePolOrbs false
#PAO.SplitNorm 0.165
#http://tel.archives-ouvertes.fr/docs/00/80/31/25/PDF/verite_these.pdf
#http://www.mail-archive.com/siesta-l@listserv.uam.es/msg01324.html
#to enhance use multiple and optimized basis set, SolutionMethod diagon, kpoints, GGA, see
#http://icmab.cat/leem/siesta/Databases/Pseudopotentials/periodictable-gga-abinit.html
#or see http://www.home.uni-osnabrueck.de/apostnik/Lectures/SIESTA-tuto.pdf to generate
#pseudo
#to set multiple basis size see "/ZrCeAl/ZrO2 siesta/forces vs basis size" folder and
#see p. 6 http://www.home.uni-osnabrueck.de/apostnik/Lectures/SIESTA-tuto.pdf
MeshCutoff          300 Ry
#FilterCutoff        800 Ry
#%block GridCellSampling
# 0.5 0.5 0.5
#%endblock GridCellSampling
MaxSCFIterations    1000         # Maximum number of SCF iter
#DM.MixingWeight     0.1         # New DM amount for next SCF cycle
#DM.NumberPulay      2
#DM.PulayOnFile      false
#DM.NumberKick       50
#DM.KickMixingWeight 0.1
DM.Tolerance	    0.0001
#%block ProjectedDensityOfStates
#-10.0 10.0 0.200 500 eV
#%endblock ProjectedDensityOfStates
#NetCharge 0.00
#%block BandLines
#1  1.000  1.000 1.000  L
#20 0.00   0.00   0.00 \Gamma
#25 2.00   0.000  0.00  X
#30 2.00   2.00   2.00  \Gamma
#%endblock BandLines
LongOutput .true.
WriteForces .true.
#WriteWaveFunctions .true.
#WriteCoorXmol .true.
LatticeConstant 1.00000 Ang #from https://materialsproject.org/tasks/mp-124
#15 Ang c parameter, http://www.yourmineralcollection.com/images/unitcell.jpg
%block LatticeParameters
  2.441 2.441 2.441 109.471 109.471 109.471
%endblock LatticeParameters
#%block SuperCell
#3 0 0
#0 3 0
#0 0 3
#%endblock SuperCell
#SolutionMethod OrderN
SolutionMethod     diagon
#OccupationFunction    MP
#OccupationMPOrder  1
#ElectronicTemperature 0.2 eV
#UseSaveData .true.
%block kgrid_Monkhorst_Pack
  10   0   0  0.0
   0  10   0  0.0
   0   0   10  0.0
%endblock Kgrid_Monkhorst_Pack
#WriteMDXmol .true.
AtomicCoordinatesFormat Fractional
#%block AtomicCoordinatesOrigin
#0.01651 0.00000 0.00000
#%endblock AtomicCoordinatesOrigin
%block AtomicCoordinatesAndAtomicSpecies
0.0000	0.0000	0.0000 1
%endblock AtomicCoordinatesAndAtomicSpecies
#%block kgrid_Monkhorst_Pack
#2 0 0 0.0
#0 4 0 0.0
#0 0 4 0.0
#%endblock kgrid_Monkhorst_Pack
#%block LDAU.proj
#zr 1
#n=4 2
#5.0 0
#0 0
#o 2
#n=3 2
#0 0
#0 0
#n=2 1
#0 0
#0 0
#%endblock LDAU.proj
************************** End of input data file *****************************

reinit: -----------------------------------------------------------------------
reinit: System Name: solid
reinit: -----------------------------------------------------------------------
reinit: System Label: solid                                                       
reinit: -----------------------------------------------------------------------

initatom: Reading input for the pseudopotentials and atomic orbitals ----------
 Species number:            1  Label: Fe Atomic number:          26
Ground state valence configuration:   4s02  3d06
Reading pseudopotential information in formatted form from Fe.psf

Valence configuration for pseudopotential generation:
4s( 2.00) rc: 2.41
4p( 0.00) rc: 2.50
3d( 6.00) rc: 2.26
4f( 0.00) rc: 2.26
For Fe, standard SIESTA heuristics set lmxkb to 3
 (one more than the basis l, including polarization orbitals).
Use PS.lmax or PS.KBprojectors blocks to override.

<basis_specs>
===============================================================================
Fe                   Z=  26    Mass=  55.850        Charge= 0.17977+309
Lmxo=2 Lmxkb= 3    BasisType=split      Semic=F
L=0  Nsemic=0  Cnfigmx=4
          n=1  nzeta=2  polorb=1
            splnorm:   0.15000    
               vcte:    0.0000    
               rinn:    0.0000    
                rcs:    0.0000      0.0000    
            lambdas:    1.0000      1.0000    
L=1  Nsemic=0  Cnfigmx=4
L=2  Nsemic=0  Cnfigmx=3
          n=1  nzeta=2  polorb=0
            splnorm:   0.15000    
               vcte:    0.0000    
               rinn:    0.0000    
                rcs:    0.0000      0.0000    
            lambdas:    1.0000      1.0000    
-------------------------------------------------------------------------------
L=0  Nkbl=1  erefs: 0.17977+309
L=1  Nkbl=1  erefs: 0.17977+309
L=2  Nkbl=1  erefs: 0.17977+309
L=3  Nkbl=1  erefs: 0.17977+309
===============================================================================
</basis_specs>

atom: Called for Fe                    (Z =  26)

read_vps: Pseudopotential generation method:
read_vps: ATM3      Troullier-Martins                       
Total valence charge:    8.00000

read_vps: Pseudopotential includes a core correction:
read_vps: Pseudo-core for xc-correction

xc_check: Exchange-correlation functional:
xc_check: GGA Perdew, Burke & Ernzerhof 1996
V l=0 = -2*Zval/r beyond r=  2.7302
V l=1 = -2*Zval/r beyond r=  2.7302
V l=2 = -2*Zval/r beyond r=  2.7302
V l=3 = -2*Zval/r beyond r=  2.7302
All V_l potentials equal beyond r=  2.4397
This should be close to max(r_c) in ps generation
All pots = -2*Zval/r beyond r=  2.7302

VLOCAL1: 99.0% of the norm of Vloc inside      7.293 Ry
VLOCAL1: 99.9% of the norm of Vloc inside     16.621 Ry
atom: Maximum radius for 4*pi*r*r*local-pseudopot. charge    2.94283
atom: Maximum radius for r*vlocal+2*Zval:    2.59703
GHOST: No ghost state for L =  0
GHOST: No ghost state for L =  1
GHOST: No ghost state for L =  2
GHOST: No ghost state for L =  3

KBgen: Kleinman-Bylander projectors: 
   l= 0   rc=  2.979846   el= -0.382263   Ekb=  3.470626   kbcos=  0.267526
   l= 1   rc=  3.055283   el= -0.099348   Ekb=  1.691775   kbcos=  0.230518
   l= 2   rc=  2.501437   el= -0.571504   Ekb=-11.615302   kbcos= -0.716808
   l= 3   rc=  3.252338   el=  0.003178   Ekb= -1.262476   kbcos= -0.009813

KBgen: Total number of  Kleinman-Bylander projectors:   16
atom: -------------------------------------------------------------------------

atom: SANKEY-TYPE ORBITALS:
atom: Selected multiple-zeta basis: split     

SPLIT: Orbitals with angular momentum L= 0

SPLIT: Basis orbitals for state 4s

SPLIT: PAO cut-off radius determined from an
SPLIT: energy shift=  0.004777 Ry

   izeta = 1
                 lambda =    1.000000
                     rc =    7.705167
                 energy =   -0.377796
                kinetic =    0.294296
    potential(screened) =   -0.672092
       potential(ionic) =   -5.890845

   izeta = 2
                 rmatch =    6.308440
              splitnorm =    0.150000
                 energy =   -0.327274
                kinetic =    0.468624
    potential(screened) =   -0.795898
       potential(ionic) =   -6.438624

SPLIT: Orbitals with angular momentum L= 2

SPLIT: Basis orbitals for state 3d

SPLIT: PAO cut-off radius determined from an
SPLIT: energy shift=  0.004777 Ry

   izeta = 1
                 lambda =    1.000000
                     rc =    4.557994
                 energy =   -0.567178
                kinetic =    8.472108
    potential(screened) =   -9.039286
       potential(ionic) =  -17.872311

   izeta = 2
                 rmatch =    2.207499
              splitnorm =    0.150000
                 energy =   -0.129588
                kinetic =   11.678346
    potential(screened) =  -11.807934
       potential(ionic) =  -21.300057

POLgen: Perturbative polarization orbital with L=  1

POLgen: Polarization orbital for state 4s

   izeta = 1
                     rc =    7.705167
                 energy =   -0.071675
                kinetic =    0.550722
    potential(screened) =   -0.622397
       potential(ionic) =   -5.409048
atom: Total number of Sankey-type orbitals: 15

atm_pop: Valence configuration (for local Pseudopot. screening):
 4s( 2.00)                                                            
 4p( 0.00)                                                            
 3d( 6.00)                                                            
Vna: chval, zval:    8.00000   8.00000

Vna:  Cut-off radius for the neutral-atom potential:   7.705167
comcore: Pseudo-core radius Rcore=  3.778693

atom: _________________________________________________________________________

prinput: Basis input ----------------------------------------------------------

PAO.BasisType split     

%block ChemicalSpeciesLabel
    1   26 Fe                      # Species index, atomic number, species label
%endblock ChemicalSpeciesLabel

%block PAO.Basis                 # Define Basis set
Fe                    2                    # Species label, number of l-shells
 n=4   0   2 P   1                   # n, l, Nzeta, Polarization, NzetaPol
   7.705      6.308   
   1.000      1.000   
 n=3   2   2                         # n, l, Nzeta 
   4.558      2.207   
   1.000      1.000   
%endblock PAO.Basis

prinput: ----------------------------------------------------------------------

coor:   Atomic-coordinates input format  =     Fractional

siesta: Atomic coordinates (Bohr) and species
siesta:      0.00000   0.00000   0.00000  1        1

siesta: System type = bulk      

initatomlists: Number of atoms, orbitals, and projectors:      1    15    16

siesta: ******************** Simulation parameters ****************************
siesta:
siesta: The following are some of the parameters of the simulation.
siesta: A complete list of the parameters used, including default values,
siesta: can be found in file out.fdf
siesta:
redata: Non-Collinear-spin run           =     F
redata: SpinPolarized (Up/Down) run      =     T
redata: Number of spin components        =     2
redata: Long output                      =     T
redata: Number of Atomic Species         =        1   
redata: Charge density info will appear in .RHO file
redata: Write Mulliken Pop.              =     Atomic and Orbital charges
redata: Mesh Cutoff                      =   300.0000  Ry
redata: Net charge of the system         =     0.0000 |e|
redata: Max. number of SCF Iter          =     1000
redata: Mixing is linear
redata: Mix DM in first SCF step ?       =     F
redata: Write Pulay info on disk?        =     F
redata: Discard 1st Pulay DM after  kick =     F
redata: New DM Mixing Weight             =     0.2500
redata: New DM Occupancy tolerance       = 0.000000000001
redata: No kicks to SCF
redata: DM Mixing Weight for Kicks       =     0.5000
redata: DM Tolerance for SCF             =     0.000100
redata: Require Energy convergence for SCF =     F
redata: DM Energy tolerance for SCF      =     0.000100 eV
redata: Require Harris convergence for SCF =     F
redata: DM Harris energy tolerance for SCF =     0.000100 eV
redata: Antiferro initial spin density   =     F
redata: Using Saved Data (generic)   =     F
redata: Use continuation files for DM    =     F
redata: Neglect nonoverlap interactions  =     F
redata: Method of Calculation            =     Diagonalization
redata: Divide and Conquer               =     T
redata: Electronic Temperature           =     0.0019  Ry
redata: Fix the spin of the system       =     F
redata: Dynamics option                  =     CG coord. optimization
redata: Variable cell                    =     F
redata: Use continuation files for CG    =     F
redata: Max atomic displ per move        =     0.2000  Bohr
redata: Maximum number of CG moves       =      100
redata: Force tolerance                  =     0.0016  Ry/Bohr
redata: ***********************************************************************
Total number of electrons:     8.000000
Total ionic charge:     8.000000
k-point displ. along   1 input, could be:     0.00    0.50
k-point displ. along   2 input, could be:     0.00    0.50
k-point displ. along   3 input, could be:     0.00    0.50
 Kpoints in:          600 . Kpoints trimmed:          560

siesta: k-point coordinates (Bohr**-1) and weights:
siesta:    1   -0.544845   -0.770524   -0.667281       0.002000
siesta:    2   -0.408634   -0.722367   -0.583871       0.002000
siesta:    3   -0.272423   -0.674209   -0.500461       0.002000
siesta:    4   -0.136211   -0.626052   -0.417050       0.002000
siesta:    5    0.000000   -0.577895   -0.333640       0.002000
siesta:    6    0.136211   -0.529737   -0.250230       0.002000
siesta:    7    0.272423   -0.481580   -0.166820       0.002000
siesta:    8    0.408634   -0.433423   -0.083410       0.002000
siesta:    9    0.544845   -0.385265    0.000000       0.002000
siesta:   10    0.681056   -0.337108    0.083410       0.001000
siesta:   11   -0.544845   -0.626050   -0.583871       0.002000
siesta:   12   -0.408634   -0.577893   -0.500461       0.002000
siesta:   13   -0.272423   -0.529736   -0.417050       0.002000
siesta:   14   -0.136211   -0.481578   -0.333640       0.002000
siesta:   15    0.000000   -0.433421   -0.250230       0.002000
siesta:   16    0.136211   -0.385264   -0.166820       0.002000
siesta:   17    0.272423   -0.337106   -0.083410       0.002000
siesta:   18    0.408634   -0.288949    0.000000       0.002000
siesta:   19    0.544845   -0.240792    0.083410       0.002000
siesta:   20    0.681056   -0.192634    0.166820       0.001000
siesta:   21   -0.544845   -0.481577   -0.500461       0.002000
siesta:   22   -0.408634   -0.433419   -0.417050       0.002000
siesta:   23   -0.272423   -0.385262   -0.333640       0.002000
siesta:   24   -0.136211   -0.337105   -0.250230       0.002000
siesta:   25    0.000000   -0.288947   -0.166820       0.002000
siesta:   26    0.136211   -0.240790   -0.083410       0.002000
siesta:   27    0.272423   -0.192633    0.000000       0.002000
siesta:   28    0.408634   -0.144475    0.083410       0.002000
siesta:   29    0.544845   -0.096318    0.166820       0.002000
siesta:   30    0.681056   -0.048161    0.250230       0.001000
siesta:   31   -0.544845   -0.337103   -0.417050       0.002000
siesta:   32   -0.408634   -0.288946   -0.333640       0.002000
siesta:   33   -0.272423   -0.240788   -0.250230       0.002000
siesta:   34   -0.136211   -0.192631   -0.166820       0.002000
siesta:   35    0.000000   -0.144474   -0.083410       0.002000
siesta:   36    0.136211   -0.096316    0.000000       0.002000
siesta:   37    0.272423   -0.048159    0.083410       0.002000
siesta:   38    0.408634   -0.000002    0.166820       0.002000
siesta:   39    0.544845    0.048156    0.250230       0.002000
siesta:   40    0.681056    0.096313    0.333640       0.001000
siesta:   41   -0.544845   -0.192629   -0.333640       0.002000
siesta:   42   -0.408634   -0.144472   -0.250230       0.002000
siesta:   43   -0.272423   -0.096315   -0.166820       0.002000
siesta:   44   -0.136211   -0.048157   -0.083410       0.002000
siesta:   45    0.000000    0.000000    0.000000       0.001000
siesta:   46    0.681056    0.240787    0.417050       0.001000
siesta:   47    0.681056    0.385261    0.500461       0.001000
siesta:   48    0.681056    0.529734    0.583871       0.001000
siesta:   49    0.681056    0.674208    0.667281       0.001000
siesta:   50    0.681056    0.818682    0.750691       0.001000
siesta:   51   -0.544845    0.529739    0.083410       0.001000
siesta:   52   -0.408634    0.577896    0.166820       0.001000
siesta:   53   -0.272423    0.626054    0.250230       0.001000
siesta:   54   -0.136211    0.674211    0.333640       0.001000
siesta:   55    0.000000    0.722368    0.417050       0.001000
siesta:   56    0.136211    0.770526    0.500461       0.001000
siesta:   57    0.272423    0.818683    0.583871       0.001000
siesta:   58    0.408634    0.866840    0.667281       0.001000
siesta:   59    0.544845    0.914998    0.750691       0.001000
siesta:   60    0.681056    0.963155    0.834101       0.001000
siesta:   61   -0.544845   -0.770524   -0.500458       0.002000
siesta:   62   -0.408634   -0.722367   -0.417048       0.002000
siesta:   63   -0.272423   -0.674209   -0.333638       0.002000
siesta:   64   -0.136211   -0.626052   -0.250228       0.002000
siesta:   65    0.000000   -0.577895   -0.166817       0.002000
siesta:   66    0.136211   -0.529737   -0.083407       0.002000
siesta:   67    0.272423   -0.481580    0.000003       0.002000
siesta:   68    0.408634   -0.433423    0.083413       0.002000
siesta:   69    0.544845   -0.385265    0.166823       0.002000
siesta:   70    0.681056   -0.337108    0.250233       0.002000
siesta:   71   -0.544845   -0.626050   -0.417048       0.002000
siesta:   72   -0.408634   -0.577893   -0.333638       0.002000
siesta:   73   -0.272423   -0.529736   -0.250228       0.002000
siesta:   74   -0.136211   -0.481578   -0.166817       0.002000
siesta:   75    0.000000   -0.433421   -0.083407       0.002000
siesta:   76    0.136211   -0.385264    0.000003       0.002000
siesta:   77    0.272423   -0.337106    0.083413       0.002000
siesta:   78    0.408634   -0.288949    0.166823       0.002000
siesta:   79    0.544845   -0.240792    0.250233       0.002000
siesta:   80    0.681056   -0.192634    0.333643       0.002000
siesta:   81   -0.544845   -0.481577   -0.333638       0.002000
siesta:   82   -0.408634   -0.433419   -0.250228       0.002000
siesta:   83   -0.272423   -0.385262   -0.166817       0.002000
siesta:   84   -0.136211   -0.337105   -0.083407       0.002000
siesta:   85    0.000000   -0.288947    0.000003       0.002000
siesta:   86    0.136211   -0.240790    0.083413       0.002000
siesta:   87    0.272423   -0.192633    0.166823       0.002000
siesta:   88    0.408634   -0.144475    0.250233       0.002000
siesta:   89    0.544845   -0.096318    0.333643       0.002000
siesta:   90    0.681056   -0.048161    0.417053       0.002000
siesta:   91   -0.544845   -0.337103   -0.250228       0.002000
siesta:   92   -0.408634   -0.288946   -0.166817       0.002000
siesta:   93   -0.272423   -0.240788   -0.083407       0.002000
siesta:   94   -0.136211   -0.192631    0.000003       0.002000
siesta:   95    0.000000   -0.144474    0.083413       0.002000
siesta:   96    0.136211   -0.096316    0.166823       0.002000
siesta:   97    0.272423   -0.048159    0.250233       0.002000
siesta:   98    0.408634   -0.000002    0.333643       0.002000
siesta:   99    0.544845    0.048156    0.417053       0.002000
siesta:  100    0.681056    0.096313    0.500463       0.002000
siesta:  101   -0.544845   -0.192629   -0.166817       0.002000
siesta:  102   -0.408634   -0.144472   -0.083407       0.002000
siesta:  103   -0.272423   -0.096315    0.000003       0.002000
siesta:  104   -0.136211   -0.048157    0.083413       0.002000
siesta:  105    0.000000    0.000000    0.166823       0.002000
siesta:  106    0.136211    0.048157    0.250233       0.002000
siesta:  107    0.272423    0.096315    0.333643       0.002000
siesta:  108    0.408634    0.144472    0.417053       0.002000
siesta:  109    0.544845    0.192629    0.500463       0.002000
siesta:  110    0.681056    0.240787    0.583873       0.002000
siesta:  111   -0.544845   -0.048156   -0.083407       0.002000
siesta:  112   -0.408634    0.000002    0.000003       0.002000
siesta:  113   -0.272423    0.048159    0.083413       0.002000
siesta:  114   -0.136211    0.096316    0.166823       0.002000
siesta:  115    0.000000    0.144474    0.250233       0.002000
siesta:  116    0.136211    0.192631    0.333643       0.002000
siesta:  117    0.272423    0.240788    0.417053       0.002000
siesta:  118    0.408634    0.288946    0.500463       0.002000
siesta:  119    0.544845    0.337103    0.583873       0.002000
siesta:  120    0.681056    0.385261    0.667284       0.002000
siesta:  121   -0.544845    0.096318    0.000003       0.002000
siesta:  122   -0.408634    0.144475    0.083413       0.002000
siesta:  123   -0.272423    0.192633    0.166823       0.002000
siesta:  124   -0.136211    0.240790    0.250233       0.002000
siesta:  125    0.000000    0.288947    0.333643       0.002000
siesta:  126    0.136211    0.337105    0.417053       0.002000
siesta:  127    0.272423    0.385262    0.500463       0.002000
siesta:  128    0.408634    0.433419    0.583873       0.002000
siesta:  129    0.544845    0.481577    0.667284       0.002000
siesta:  130    0.681056    0.529734    0.750694       0.002000
siesta:  131   -0.544845    0.240792    0.083413       0.002000
siesta:  132   -0.408634    0.288949    0.166823       0.002000
siesta:  133   -0.272423    0.337106    0.250233       0.002000
siesta:  134   -0.136211    0.385264    0.333643       0.002000
siesta:  135    0.000000    0.433421    0.417053       0.002000
siesta:  136    0.136211    0.481578    0.500463       0.002000
siesta:  137    0.272423    0.529736    0.583873       0.002000
siesta:  138    0.408634    0.577893    0.667284       0.002000
siesta:  139    0.544845    0.626050    0.750694       0.002000
siesta:  140    0.681056    0.674208    0.834104       0.002000
siesta:  141   -0.544845    0.385265    0.166823       0.002000
siesta:  142   -0.408634    0.433423    0.250233       0.002000
siesta:  143   -0.272423    0.481580    0.333643       0.002000
siesta:  144   -0.136211    0.529737    0.417053       0.002000
siesta:  145    0.000000    0.577895    0.500463       0.002000
siesta:  146    0.136211    0.626052    0.583873       0.002000
siesta:  147    0.272423    0.674209    0.667284       0.002000
siesta:  148    0.408634    0.722367    0.750694       0.002000
siesta:  149    0.544845    0.770524    0.834104       0.002000
siesta:  150    0.681056    0.818682    0.917514       0.002000
siesta:  151   -0.544845    0.529739    0.250233       0.002000
siesta:  152   -0.408634    0.577896    0.333643       0.002000
siesta:  153   -0.272423    0.626054    0.417053       0.002000
siesta:  154   -0.136211    0.674211    0.500463       0.002000
siesta:  155    0.000000    0.722368    0.583873       0.002000
siesta:  156    0.136211    0.770526    0.667284       0.002000
siesta:  157    0.272423    0.818683    0.750694       0.002000
siesta:  158    0.408634    0.866840    0.834104       0.002000
siesta:  159    0.544845    0.914998    0.917514       0.002000
siesta:  160    0.681056    0.963155    1.000924       0.002000
siesta:  161   -0.544845   -0.770524   -0.333635       0.002000
siesta:  162   -0.408634   -0.722367   -0.250225       0.002000
siesta:  163   -0.272423   -0.674209   -0.166815       0.002000
siesta:  164   -0.136211   -0.626052   -0.083405       0.002000
siesta:  165    0.000000   -0.577895    0.000005       0.002000
siesta:  166    0.136211   -0.529737    0.083416       0.002000
siesta:  167    0.272423   -0.481580    0.166826       0.002000
siesta:  168    0.408634   -0.433423    0.250236       0.002000
siesta:  169    0.544845   -0.385265    0.333646       0.002000
siesta:  170    0.681056   -0.337108    0.417056       0.002000
siesta:  171   -0.544845   -0.626050   -0.250225       0.002000
siesta:  172   -0.408634   -0.577893   -0.166815       0.002000
siesta:  173   -0.272423   -0.529736   -0.083405       0.002000
siesta:  174   -0.136211   -0.481578    0.000005       0.002000
siesta:  175    0.000000   -0.433421    0.083416       0.002000
siesta:  176    0.136211   -0.385264    0.166826       0.002000
siesta:  177    0.272423   -0.337106    0.250236       0.002000
siesta:  178    0.408634   -0.288949    0.333646       0.002000
siesta:  179    0.544845   -0.240792    0.417056       0.002000
siesta:  180    0.681056   -0.192634    0.500466       0.002000
siesta:  181   -0.544845   -0.481577   -0.166815       0.002000
siesta:  182   -0.408634   -0.433419   -0.083405       0.002000
siesta:  183   -0.272423   -0.385262    0.000005       0.002000
siesta:  184   -0.136211   -0.337105    0.083416       0.002000
siesta:  185    0.000000   -0.288947    0.166826       0.002000
siesta:  186    0.136211   -0.240790    0.250236       0.002000
siesta:  187    0.272423   -0.192633    0.333646       0.002000
siesta:  188    0.408634   -0.144475    0.417056       0.002000
siesta:  189    0.544845   -0.096318    0.500466       0.002000
siesta:  190    0.681056   -0.048161    0.583876       0.002000
siesta:  191   -0.544845   -0.337103   -0.083405       0.002000
siesta:  192   -0.408634   -0.288946    0.000005       0.002000
siesta:  193   -0.272423   -0.240788    0.083416       0.002000
siesta:  194   -0.136211   -0.192631    0.166826       0.002000
siesta:  195    0.000000   -0.144474    0.250236       0.002000
siesta:  196    0.136211   -0.096316    0.333646       0.002000
siesta:  197    0.272423   -0.048159    0.417056       0.002000
siesta:  198    0.408634   -0.000002    0.500466       0.002000
siesta:  199    0.544845    0.048156    0.583876       0.002000
siesta:  200    0.681056    0.096313    0.667286       0.002000
siesta:  201   -0.544845   -0.192629    0.000005       0.002000
siesta:  202   -0.408634   -0.144472    0.083416       0.002000
siesta:  203   -0.272423   -0.096315    0.166826       0.002000
siesta:  204   -0.136211   -0.048157    0.250236       0.002000
siesta:  205    0.000000    0.000000    0.333646       0.002000
siesta:  206    0.136211    0.048157    0.417056       0.002000
siesta:  207    0.272423    0.096315    0.500466       0.002000
siesta:  208    0.408634    0.144472    0.583876       0.002000
siesta:  209    0.544845    0.192629    0.667286       0.002000
siesta:  210    0.681056    0.240787    0.750696       0.002000
siesta:  211   -0.544845   -0.048156    0.083416       0.002000
siesta:  212   -0.408634    0.000002    0.166826       0.002000
siesta:  213   -0.272423    0.048159    0.250236       0.002000
siesta:  214   -0.136211    0.096316    0.333646       0.002000
siesta:  215    0.000000    0.144474    0.417056       0.002000
siesta:  216    0.136211    0.192631    0.500466       0.002000
siesta:  217    0.272423    0.240788    0.583876       0.002000
siesta:  218    0.408634    0.288946    0.667286       0.002000
siesta:  219    0.544845    0.337103    0.750696       0.002000
siesta:  220    0.681056    0.385261    0.834106       0.002000
siesta:  221   -0.544845    0.096318    0.166826       0.002000
siesta:  222   -0.408634    0.144475    0.250236       0.002000
siesta:  223   -0.272423    0.192633    0.333646       0.002000
siesta:  224   -0.136211    0.240790    0.417056       0.002000
siesta:  225    0.000000    0.288947    0.500466       0.002000
siesta:  226    0.136211    0.337105    0.583876       0.002000
siesta:  227    0.272423    0.385262    0.667286       0.002000
siesta:  228    0.408634    0.433419    0.750696       0.002000
siesta:  229    0.544845    0.481577    0.834106       0.002000
siesta:  230    0.681056    0.529734    0.917517       0.002000
siesta:  231   -0.544845    0.240792    0.250236       0.002000
siesta:  232   -0.408634    0.288949    0.333646       0.002000
siesta:  233   -0.272423    0.337106    0.417056       0.002000
siesta:  234   -0.136211    0.385264    0.500466       0.002000
siesta:  235    0.000000    0.433421    0.583876       0.002000
siesta:  236    0.136211    0.481578    0.667286       0.002000
siesta:  237    0.272423    0.529736    0.750696       0.002000
siesta:  238    0.408634    0.577893    0.834106       0.002000
siesta:  239    0.544845    0.626050    0.917517       0.002000
siesta:  240    0.681056    0.674208    1.000927       0.002000
siesta:  241   -0.544845    0.385265    0.333646       0.002000
siesta:  242   -0.408634    0.433423    0.417056       0.002000
siesta:  243   -0.272423    0.481580    0.500466       0.002000
siesta:  244   -0.136211    0.529737    0.583876       0.002000
siesta:  245    0.000000    0.577895    0.667286       0.002000
siesta:  246    0.136211    0.626052    0.750696       0.002000
siesta:  247    0.272423    0.674209    0.834106       0.002000
siesta:  248    0.408634    0.722367    0.917517       0.002000
siesta:  249    0.544845    0.770524    1.000927       0.002000
siesta:  250    0.681056    0.818682    1.084337       0.002000
siesta:  251   -0.544845    0.529739    0.417056       0.002000
siesta:  252   -0.408634    0.577896    0.500466       0.002000
siesta:  253   -0.272423    0.626054    0.583876       0.002000
siesta:  254   -0.136211    0.674211    0.667286       0.002000
siesta:  255    0.000000    0.722368    0.750696       0.002000
siesta:  256    0.136211    0.770526    0.834106       0.002000
siesta:  257    0.272423    0.818683    0.917517       0.002000
siesta:  258    0.408634    0.866840    1.000927       0.002000
siesta:  259    0.544845    0.914998    1.084337       0.002000
siesta:  260    0.681056    0.963155    1.167747       0.002000
siesta:  261   -0.544845   -0.770524   -0.166812       0.002000
siesta:  262   -0.408634   -0.722367   -0.083402       0.002000
siesta:  263   -0.272423   -0.674209    0.000008       0.002000
siesta:  264   -0.136211   -0.626052    0.083418       0.002000
siesta:  265    0.000000   -0.577895    0.166828       0.002000
siesta:  266    0.136211   -0.529737    0.250238       0.002000
siesta:  267    0.272423   -0.481580    0.333649       0.002000
siesta:  268    0.408634   -0.433423    0.417059       0.002000
siesta:  269    0.544845   -0.385265    0.500469       0.002000
siesta:  270    0.681056   -0.337108    0.583879       0.002000
siesta:  271   -0.544845   -0.626050   -0.083402       0.002000
siesta:  272   -0.408634   -0.577893    0.000008       0.002000
siesta:  273   -0.272423   -0.529736    0.083418       0.002000
siesta:  274   -0.136211   -0.481578    0.166828       0.002000
siesta:  275    0.000000   -0.433421    0.250238       0.002000
siesta:  276    0.136211   -0.385264    0.333649       0.002000
siesta:  277    0.272423   -0.337106    0.417059       0.002000
siesta:  278    0.408634   -0.288949    0.500469       0.002000
siesta:  279    0.544845   -0.240792    0.583879       0.002000
siesta:  280    0.681056   -0.192634    0.667289       0.002000
siesta:  281   -0.544845   -0.481577    0.000008       0.002000
siesta:  282   -0.408634   -0.433419    0.083418       0.002000
siesta:  283   -0.272423   -0.385262    0.166828       0.002000
siesta:  284   -0.136211   -0.337105    0.250238       0.002000
siesta:  285    0.000000   -0.288947    0.333649       0.002000
siesta:  286    0.136211   -0.240790    0.417059       0.002000
siesta:  287    0.272423   -0.192633    0.500469       0.002000
siesta:  288    0.408634   -0.144475    0.583879       0.002000
siesta:  289    0.544845   -0.096318    0.667289       0.002000
siesta:  290    0.681056   -0.048161    0.750699       0.002000
siesta:  291   -0.544845   -0.337103    0.083418       0.002000
siesta:  292   -0.408634   -0.288946    0.166828       0.002000
siesta:  293   -0.272423   -0.240788    0.250238       0.002000
siesta:  294   -0.136211   -0.192631    0.333649       0.002000
siesta:  295    0.000000   -0.144474    0.417059       0.002000
siesta:  296    0.136211   -0.096316    0.500469       0.002000
siesta:  297    0.272423   -0.048159    0.583879       0.002000
siesta:  298    0.408634   -0.000002    0.667289       0.002000
siesta:  299    0.544845    0.048156    0.750699       0.002000
siesta:  300    0.681056    0.096313    0.834109       0.002000
siesta:  301   -0.544845   -0.192629    0.166828       0.002000
siesta:  302   -0.408634   -0.144472    0.250238       0.002000
siesta:  303   -0.272423   -0.096315    0.333649       0.002000
siesta:  304   -0.136211   -0.048157    0.417059       0.002000
siesta:  305    0.000000    0.000000    0.500469       0.002000
siesta:  306    0.136211    0.048157    0.583879       0.002000
siesta:  307    0.272423    0.096315    0.667289       0.002000
siesta:  308    0.408634    0.144472    0.750699       0.002000
siesta:  309    0.544845    0.192629    0.834109       0.002000
siesta:  310    0.681056    0.240787    0.917519       0.002000
siesta:  311   -0.544845   -0.048156    0.250238       0.002000
siesta:  312   -0.408634    0.000002    0.333649       0.002000
siesta:  313   -0.272423    0.048159    0.417059       0.002000
siesta:  314   -0.136211    0.096316    0.500469       0.002000
siesta:  315    0.000000    0.144474    0.583879       0.002000
siesta:  316    0.136211    0.192631    0.667289       0.002000
siesta:  317    0.272423    0.240788    0.750699       0.002000
siesta:  318    0.408634    0.288946    0.834109       0.002000
siesta:  319    0.544845    0.337103    0.917519       0.002000
siesta:  320    0.681056    0.385261    1.000929       0.002000
siesta:  321   -0.544845    0.096318    0.333649       0.002000
siesta:  322   -0.408634    0.144475    0.417059       0.002000
siesta:  323   -0.272423    0.192633    0.500469       0.002000
siesta:  324   -0.136211    0.240790    0.583879       0.002000
siesta:  325    0.000000    0.288947    0.667289       0.002000
siesta:  326    0.136211    0.337105    0.750699       0.002000
siesta:  327    0.272423    0.385262    0.834109       0.002000
siesta:  328    0.408634    0.433419    0.917519       0.002000
siesta:  329    0.544845    0.481577    1.000929       0.002000
siesta:  330    0.681056    0.529734    1.084339       0.002000
siesta:  331   -0.544845    0.240792    0.417059       0.002000
siesta:  332   -0.408634    0.288949    0.500469       0.002000
siesta:  333   -0.272423    0.337106    0.583879       0.002000
siesta:  334   -0.136211    0.385264    0.667289       0.002000
siesta:  335    0.000000    0.433421    0.750699       0.002000
siesta:  336    0.136211    0.481578    0.834109       0.002000
siesta:  337    0.272423    0.529736    0.917519       0.002000
siesta:  338    0.408634    0.577893    1.000929       0.002000
siesta:  339    0.544845    0.626050    1.084339       0.002000
siesta:  340    0.681056    0.674208    1.167750       0.002000
siesta:  341   -0.544845    0.385265    0.500469       0.002000
siesta:  342   -0.408634    0.433423    0.583879       0.002000
siesta:  343   -0.272423    0.481580    0.667289       0.002000
siesta:  344   -0.136211    0.529737    0.750699       0.002000
siesta:  345    0.000000    0.577895    0.834109       0.002000
siesta:  346    0.136211    0.626052    0.917519       0.002000
siesta:  347    0.272423    0.674209    1.000929       0.002000
siesta:  348    0.408634    0.722367    1.084339       0.002000
siesta:  349    0.544845    0.770524    1.167750       0.002000
siesta:  350    0.681056    0.818682    1.251160       0.002000
siesta:  351   -0.544845    0.529739    0.583879       0.002000
siesta:  352   -0.408634    0.577896    0.667289       0.002000
siesta:  353   -0.272423    0.626054    0.750699       0.002000
siesta:  354   -0.136211    0.674211    0.834109       0.002000
siesta:  355    0.000000    0.722368    0.917519       0.002000
siesta:  356    0.136211    0.770526    1.000929       0.002000
siesta:  357    0.272423    0.818683    1.084339       0.002000
siesta:  358    0.408634    0.866840    1.167750       0.002000
siesta:  359    0.544845    0.914998    1.251160       0.002000
siesta:  360    0.681056    0.963155    1.334570       0.002000
siesta:  361   -0.544845   -0.770524    0.000011       0.002000
siesta:  362   -0.408634   -0.722367    0.083421       0.002000
siesta:  363   -0.272423   -0.674209    0.166831       0.002000
siesta:  364   -0.136211   -0.626052    0.250241       0.002000
siesta:  365    0.000000   -0.577895    0.333651       0.002000
siesta:  366    0.136211   -0.529737    0.417061       0.002000
siesta:  367    0.272423   -0.481580    0.500471       0.002000
siesta:  368    0.408634   -0.433423    0.583882       0.002000
siesta:  369    0.544845   -0.385265    0.667292       0.002000
siesta:  370    0.681056   -0.337108    0.750702       0.002000
siesta:  371   -0.544845   -0.626050    0.083421       0.002000
siesta:  372   -0.408634   -0.577893    0.166831       0.002000
siesta:  373   -0.272423   -0.529736    0.250241       0.002000
siesta:  374   -0.136211   -0.481578    0.333651       0.002000
siesta:  375    0.000000   -0.433421    0.417061       0.002000
siesta:  376    0.136211   -0.385264    0.500471       0.002000
siesta:  377    0.272423   -0.337106    0.583882       0.002000
siesta:  378    0.408634   -0.288949    0.667292       0.002000
siesta:  379    0.544845   -0.240792    0.750702       0.002000
siesta:  380    0.681056   -0.192634    0.834112       0.002000
siesta:  381   -0.544845   -0.481577    0.166831       0.002000
siesta:  382   -0.408634   -0.433419    0.250241       0.002000
siesta:  383   -0.272423   -0.385262    0.333651       0.002000
siesta:  384   -0.136211   -0.337105    0.417061       0.002000
siesta:  385    0.000000   -0.288947    0.500471       0.002000
siesta:  386    0.136211   -0.240790    0.583882       0.002000
siesta:  387    0.272423   -0.192633    0.667292       0.002000
siesta:  388    0.408634   -0.144475    0.750702       0.002000
siesta:  389    0.544845   -0.096318    0.834112       0.002000
siesta:  390    0.681056   -0.048161    0.917522       0.002000
siesta:  391   -0.544845   -0.337103    0.250241       0.002000
siesta:  392   -0.408634   -0.288946    0.333651       0.002000
siesta:  393   -0.272423   -0.240788    0.417061       0.002000
siesta:  394   -0.136211   -0.192631    0.500471       0.002000
siesta:  395    0.000000   -0.144474    0.583882       0.002000
siesta:  396    0.136211   -0.096316    0.667292       0.002000
siesta:  397    0.272423   -0.048159    0.750702       0.002000
siesta:  398    0.408634   -0.000002    0.834112       0.002000
siesta:  399    0.544845    0.048156    0.917522       0.002000
siesta:  400    0.681056    0.096313    1.000932       0.002000
siesta:  401   -0.544845   -0.192629    0.333651       0.002000
siesta:  402   -0.408634   -0.144472    0.417061       0.002000
siesta:  403   -0.272423   -0.096315    0.500471       0.002000
siesta:  404   -0.136211   -0.048157    0.583882       0.002000
siesta:  405    0.000000    0.000000    0.667292       0.002000
siesta:  406    0.136211    0.048157    0.750702       0.002000
siesta:  407    0.272423    0.096315    0.834112       0.002000
siesta:  408    0.408634    0.144472    0.917522       0.002000
siesta:  409    0.544845    0.192629    1.000932       0.002000
siesta:  410    0.681056    0.240787    1.084342       0.002000
siesta:  411   -0.544845   -0.048156    0.417061       0.002000
siesta:  412   -0.408634    0.000002    0.500471       0.002000
siesta:  413   -0.272423    0.048159    0.583882       0.002000
siesta:  414   -0.136211    0.096316    0.667292       0.002000
siesta:  415    0.000000    0.144474    0.750702       0.002000
siesta:  416    0.136211    0.192631    0.834112       0.002000
siesta:  417    0.272423    0.240788    0.917522       0.002000
siesta:  418    0.408634    0.288946    1.000932       0.002000
siesta:  419    0.544845    0.337103    1.084342       0.002000
siesta:  420    0.681056    0.385261    1.167752       0.002000
siesta:  421   -0.544845    0.096318    0.500471       0.002000
siesta:  422   -0.408634    0.144475    0.583882       0.002000
siesta:  423   -0.272423    0.192633    0.667292       0.002000
siesta:  424   -0.136211    0.240790    0.750702       0.002000
siesta:  425    0.000000    0.288947    0.834112       0.002000
siesta:  426    0.136211    0.337105    0.917522       0.002000
siesta:  427    0.272423    0.385262    1.000932       0.002000
siesta:  428    0.408634    0.433419    1.084342       0.002000
siesta:  429    0.544845    0.481577    1.167752       0.002000
siesta:  430    0.681056    0.529734    1.251162       0.002000
siesta:  431   -0.544845    0.240792    0.583882       0.002000
siesta:  432   -0.408634    0.288949    0.667292       0.002000
siesta:  433   -0.272423    0.337106    0.750702       0.002000
siesta:  434   -0.136211    0.385264    0.834112       0.002000
siesta:  435    0.000000    0.433421    0.917522       0.002000
siesta:  436    0.136211    0.481578    1.000932       0.002000
siesta:  437    0.272423    0.529736    1.084342       0.002000
siesta:  438    0.408634    0.577893    1.167752       0.002000
siesta:  439    0.544845    0.626050    1.251162       0.002000
siesta:  440    0.681056    0.674208    1.334572       0.002000
siesta:  441   -0.544845    0.385265    0.667292       0.002000
siesta:  442   -0.408634    0.433423    0.750702       0.002000
siesta:  443   -0.272423    0.481580    0.834112       0.002000
siesta:  444   -0.136211    0.529737    0.917522       0.002000
siesta:  445    0.000000    0.577895    1.000932       0.002000
siesta:  446    0.136211    0.626052    1.084342       0.002000
siesta:  447    0.272423    0.674209    1.167752       0.002000
siesta:  448    0.408634    0.722367    1.251162       0.002000
siesta:  449    0.544845    0.770524    1.334572       0.002000
siesta:  450    0.681056    0.818682    1.417983       0.002000
siesta:  451   -0.544845    0.529739    0.750702       0.002000
siesta:  452   -0.408634    0.577896    0.834112       0.002000
siesta:  453   -0.272423    0.626054    0.917522       0.002000
siesta:  454   -0.136211    0.674211    1.000932       0.002000
siesta:  455    0.000000    0.722368    1.084342       0.002000
siesta:  456    0.136211    0.770526    1.167752       0.002000
siesta:  457    0.272423    0.818683    1.251162       0.002000
siesta:  458    0.408634    0.866840    1.334572       0.002000
siesta:  459    0.544845    0.914998    1.417983       0.002000
siesta:  460    0.681056    0.963155    1.501393       0.002000
siesta:  461   -0.544845   -0.770524    0.166834       0.001000
siesta:  462   -0.408634   -0.722367    0.250244       0.001000
siesta:  463   -0.272423   -0.674209    0.333654       0.001000
siesta:  464   -0.136211   -0.626052    0.417064       0.001000
siesta:  465    0.000000   -0.577895    0.500474       0.001000
siesta:  466    0.136211   -0.529737    0.583884       0.001000
siesta:  467    0.272423   -0.481580    0.667294       0.001000
siesta:  468    0.408634   -0.433423    0.750705       0.001000
siesta:  469    0.544845   -0.385265    0.834115       0.001000
siesta:  470    0.681056   -0.337108    0.917525       0.001000
siesta:  471   -0.544845   -0.626050    0.250244       0.001000
siesta:  472   -0.408634   -0.577893    0.333654       0.001000
siesta:  473   -0.272423   -0.529736    0.417064       0.001000
siesta:  474   -0.136211   -0.481578    0.500474       0.001000
siesta:  475    0.000000   -0.433421    0.583884       0.001000
siesta:  476    0.136211   -0.385264    0.667294       0.001000
siesta:  477    0.272423   -0.337106    0.750705       0.001000
siesta:  478    0.408634   -0.288949    0.834115       0.001000
siesta:  479    0.544845   -0.240792    0.917525       0.001000
siesta:  480    0.681056   -0.192634    1.000935       0.001000
siesta:  481   -0.544845   -0.481577    0.333654       0.001000
siesta:  482   -0.408634   -0.433419    0.417064       0.001000
siesta:  483   -0.272423   -0.385262    0.500474       0.001000
siesta:  484   -0.136211   -0.337105    0.583884       0.001000
siesta:  485    0.000000   -0.288947    0.667294       0.001000
siesta:  486    0.136211   -0.240790    0.750705       0.001000
siesta:  487    0.272423   -0.192633    0.834115       0.001000
siesta:  488    0.408634   -0.144475    0.917525       0.001000
siesta:  489    0.544845   -0.096318    1.000935       0.001000
siesta:  490    0.681056   -0.048161    1.084345       0.001000
siesta:  491   -0.544845   -0.337103    0.417064       0.001000
siesta:  492   -0.408634   -0.288946    0.500474       0.001000
siesta:  493   -0.272423   -0.240788    0.583884       0.001000
siesta:  494   -0.136211   -0.192631    0.667294       0.001000
siesta:  495    0.000000   -0.144474    0.750705       0.001000
siesta:  496    0.136211   -0.096316    0.834115       0.001000
siesta:  497    0.272423   -0.048159    0.917525       0.001000
siesta:  498    0.408634   -0.000002    1.000935       0.001000
siesta:  499    0.544845    0.048156    1.084345       0.001000
siesta:  500    0.681056    0.096313    1.167755       0.001000
siesta:  501   -0.544845   -0.192629    0.500474       0.001000
siesta:  502   -0.408634   -0.144472    0.583884       0.001000
siesta:  503   -0.272423   -0.096315    0.667294       0.001000
siesta:  504   -0.136211   -0.048157    0.750705       0.001000
siesta:  505    0.000000    0.000000    0.834115       0.001000
siesta:  506    0.136211    0.048157    0.917525       0.001000
siesta:  507    0.272423    0.096315    1.000935       0.001000
siesta:  508    0.408634    0.144472    1.084345       0.001000
siesta:  509    0.544845    0.192629    1.167755       0.001000
siesta:  510    0.681056    0.240787    1.251165       0.001000
siesta:  511   -0.544845   -0.048156    0.583884       0.001000
siesta:  512   -0.408634    0.000002    0.667294       0.001000
siesta:  513   -0.272423    0.048159    0.750705       0.001000
siesta:  514   -0.136211    0.096316    0.834115       0.001000
siesta:  515    0.000000    0.144474    0.917525       0.001000
siesta:  516    0.136211    0.192631    1.000935       0.001000
siesta:  517    0.272423    0.240788    1.084345       0.001000
siesta:  518    0.408634    0.288946    1.167755       0.001000
siesta:  519    0.544845    0.337103    1.251165       0.001000
siesta:  520    0.681056    0.385261    1.334575       0.001000
siesta:  521   -0.544845    0.096318    0.667294       0.001000
siesta:  522   -0.408634    0.144475    0.750705       0.001000
siesta:  523   -0.272423    0.192633    0.834115       0.001000
siesta:  524   -0.136211    0.240790    0.917525       0.001000
siesta:  525    0.000000    0.288947    1.000935       0.001000
siesta:  526    0.136211    0.337105    1.084345       0.001000
siesta:  527    0.272423    0.385262    1.167755       0.001000
siesta:  528    0.408634    0.433419    1.251165       0.001000
siesta:  529    0.544845    0.481577    1.334575       0.001000
siesta:  530    0.681056    0.529734    1.417985       0.001000
siesta:  531   -0.544845    0.240792    0.750705       0.001000
siesta:  532   -0.408634    0.288949    0.834115       0.001000
siesta:  533   -0.272423    0.337106    0.917525       0.001000
siesta:  534   -0.136211    0.385264    1.000935       0.001000
siesta:  535    0.000000    0.433421    1.084345       0.001000
siesta:  536    0.136211    0.481578    1.167755       0.001000
siesta:  537    0.272423    0.529736    1.251165       0.001000
siesta:  538    0.408634    0.577893    1.334575       0.001000
siesta:  539    0.544845    0.626050    1.417985       0.001000
siesta:  540    0.681056    0.674208    1.501395       0.001000
siesta:  541   -0.544845    0.385265    0.834115       0.001000
siesta:  542   -0.408634    0.433423    0.917525       0.001000
siesta:  543   -0.272423    0.481580    1.000935       0.001000
siesta:  544   -0.136211    0.529737    1.084345       0.001000
siesta:  545    0.000000    0.577895    1.167755       0.001000
siesta:  546    0.136211    0.626052    1.251165       0.001000
siesta:  547    0.272423    0.674209    1.334575       0.001000
siesta:  548    0.408634    0.722367    1.417985       0.001000
siesta:  549    0.544845    0.770524    1.501395       0.001000
siesta:  550    0.681056    0.818682    1.584805       0.001000
siesta:  551   -0.544845    0.529739    0.917525       0.001000
siesta:  552   -0.408634    0.577896    1.000935       0.001000
siesta:  553   -0.272423    0.626054    1.084345       0.001000
siesta:  554   -0.136211    0.674211    1.167755       0.001000
siesta:  555    0.000000    0.722368    1.251165       0.001000
siesta:  556    0.136211    0.770526    1.334575       0.001000
siesta:  557    0.272423    0.818683    1.417985       0.001000
siesta:  558    0.408634    0.866840    1.501395       0.001000
siesta:  559    0.544845    0.914998    1.584805       0.001000
siesta:  560    0.681056    0.963155    1.668216       0.001000

siesta: k-grid: Number of k-points =   560
siesta: k-grid: Cutoff (effective) =    12.205 Ang
siesta: k-grid: Supercell and displacements
siesta: k-grid:   10   0   0      0.000
siesta: k-grid:    0  10   0      0.000
siesta: k-grid:    0   0  10      0.000
Naive supercell factors:    10   10   10

superc: Internal auxiliary supercell:    10 x    10 x    10  =    1000
superc: Number of atoms, orbitals, and projectors:   1000  15000  16000

* Maximum dynamic memory allocated =     2 MB

siesta:                 ==============================
                            Begin CG move =      0
                        ==============================

outcoor: Atomic coordinates (fractional):                   
    0.00000000    0.00000000    0.00000000   1       1  Fe

superc: Internal auxiliary supercell:    10 x    10 x    10  =    1000
superc: Number of atoms, orbitals, and projectors:   1000  15000  16000

outcell: Unit cell vectors (Ang):
        2.441000    0.000000    0.000000
       -0.813658    2.301400    0.000000
       -0.813658   -1.150681    1.993082

outcell: Cell vector modules (Ang)   :    2.441000    2.441000    2.441000
outcell: Cell angles (23,13,12) (deg):    109.4710    109.4710    109.4710
outcell: Cell volume (Ang**3)        :     11.1966
New_DM. Step:     1
Initializing Density Matrix...

initdm: Initial spin polarization (Qup-Qdown) =    4.000000

InitMesh: MESH =    24 x    24 x    24 =       13824
InitMesh: Mesh cutoff (required, used) =   300.000   400.750 Ry

* Maximum dynamic memory allocated =    42 MB

stepf: Fermi-Dirac step function

siesta: Program's energy decomposition (eV):
siesta: Ebs     =       -84.806835
siesta: Eions   =       638.104896
siesta: Ena     =         8.555986
siesta: Ekin    =       699.644157
siesta: Enl     =      -478.819555
siesta: DEna    =         0.000003
siesta: DUscf   =         0.000000
siesta: DUext   =         0.000000
siesta: Exc     =      -160.605572
siesta: eta*DQ  =         0.000000
siesta: Emadel  =         0.000000
siesta: Emeta   =         0.000000
siesta: Emolmec =         0.000000
siesta: Ekinion =         0.000000
siesta: Eharris =      -567.637079
siesta: Etot    =      -569.329877
siesta: FreeEng =      -569.329877

siesta: iscf   Eharris(eV)      E_KS(eV)   FreeEng(eV)   dDmax  Ef(eV)
siesta:    1     -567.6371     -569.3299     -569.3299  1.8129 -7.0352
timer: Routine,Calls,Time,% = IterSCF        1      32.736  96.57
elaps: Routine,Calls,Wall,% = IterSCF        1      32.894  95.82
siesta:    2     -568.0391     -567.7483     -567.7502  0.5042 -8.4204
siesta:    3     -567.9317     -567.8014     -567.8041  0.1974 -8.1567
siesta:    4     -567.9177     -567.8314     -567.8338  0.0855 -8.0459
siesta:    5     -567.9162     -567.8527     -567.8549  0.0547 -8.0011
siesta:    6     -567.9168     -567.8686     -567.8711  0.0436 -7.9848
siesta:    7     -567.9179     -567.8809     -567.8835  0.0403 -7.9805
siesta:    8     -567.9188     -567.8902     -567.8929  0.0393 -7.9813
siesta:    9     -567.9198     -567.8974     -567.9002  0.0382 -7.9843
siesta:   10     -567.9207     -567.9031     -567.9059  0.0362 -7.9883
siesta:   11     -567.9215     -567.9076     -567.9103  0.0334 -7.9927
siesta:   12     -567.9221     -567.9111     -567.9137  0.0302 -7.9970
siesta:   13     -567.9227     -567.9140     -567.9165  0.0268 -8.0013
siesta:   14     -567.9231     -567.9162     -567.9186  0.0234 -8.0053
siesta:   15     -567.9234     -567.9179     -567.9202  0.0202 -8.0092
siesta:   16     -567.9238     -567.9194     -567.9217  0.0171 -8.0128
siesta:   17     -567.9241     -567.9206     -567.9228  0.0143 -8.0163
siesta:   18     -567.9243     -567.9215     -567.9237  0.0118 -8.0196
siesta:   19     -567.9244     -567.9222     -567.9243  0.0097 -8.0226
siesta:   20     -567.9245     -567.9227     -567.9248  0.0078 -8.0253
siesta:   21     -567.9245     -567.9231     -567.9251  0.0062 -8.0277
siesta:   22     -567.9246     -567.9235     -567.9255  0.0049 -8.0299
siesta:   23     -567.9247     -567.9238     -567.9258  0.0039 -8.0317
siesta:   24     -567.9248     -567.9241     -567.9261  0.0032 -8.0333
siesta:   25     -567.9248     -567.9243     -567.9262  0.0026 -8.0347
siesta:   26     -567.9248     -567.9244     -567.9263  0.0021 -8.0359
siesta:   27     -567.9249     -567.9245     -567.9264  0.0017 -8.0369
siesta:   28     -567.9249     -567.9246     -567.9265  0.0014 -8.0377
siesta:   29     -567.9249     -567.9247     -567.9266  0.0011 -8.0384
siesta:   30     -567.9249     -567.9247     -567.9266  0.0009 -8.0390
siesta:   31     -567.9249     -567.9247     -567.9266  0.0008 -8.0395
siesta:   32     -567.9249     -567.9248     -567.9267  0.0006 -8.0399
siesta:   33     -567.9249     -567.9248     -567.9267  0.0005 -8.0403
siesta:   34     -567.9249     -567.9248     -567.9267  0.0004 -8.0406
siesta:   35     -567.9249     -567.9248     -567.9267  0.0003 -8.0408
siesta:   36     -567.9249     -567.9248     -567.9267  0.0003 -8.0410
siesta:   37     -567.9249     -567.9249     -567.9267  0.0002 -8.0412
siesta:   38     -567.9249     -567.9249     -567.9267  0.0002 -8.0413
siesta:   39     -567.9249     -567.9249     -567.9267  0.0001 -8.0414
siesta:   40     -567.9249     -567.9249     -567.9267  0.0001 -8.0415
siesta:   41     -567.9249     -567.9249     -567.9267  0.0001 -8.0416
siesta:   42     -567.9249     -567.9249     -567.9267  0.0001 -8.0417

siesta: E_KS(eV) =             -567.9249

siesta: E_KS - E_eggbox =      -567.9249

siesta: Atomic forces (eV/Ang):
     1    0.000001    0.000005    0.000001
----------------------------------------
   Tot    0.000001    0.000005    0.000001
----------------------------------------
   Max    0.000005
   Res    0.000003    sqrt( Sum f_i^2 / 3N )
----------------------------------------
   Max    0.000005    constrained

Stress-tensor-Voigt (kbar):     -308.58     -308.23     -306.83        0.49        1.21        0.86
(Free)E + p*V (eV/cell)     -565.7752
Target enthalpy (eV/cell)     -567.9267

mulliken: Mulliken Atomic and Orbital Populations:

mulliken: Spin UP 

Species: Fe                  
Atom  Qatom  Qorb
               4s      4s      3dxy    3dyz    3dz2    3dxz    3dx2-y2 3dxy    
               3dyz    3dz2    3dxz    3dx2-y2 4Ppy    4Ppz    4Ppx    
   1  5.335  -0.435   0.676   0.955   0.947   0.945   0.955   0.941  -0.007
             -0.006  -0.006  -0.007  -0.006   0.127   0.127   0.127

mulliken: Qtot =        5.335

mulliken: Spin DOWN 

Species: Fe                  
Atom  Qatom  Qorb
               4s      4s      3dxy    3dyz    3dz2    3dxz    3dx2-y2 3dxy    
               3dyz    3dz2    3dxz    3dx2-y2 4Ppy    4Ppz    4Ppx    
   1  2.665  -0.570   0.849   0.367   0.421   0.433   0.367   0.459  -0.050
             -0.049  -0.048  -0.050  -0.048   0.195   0.195   0.195

mulliken: Qtot =        2.665

cgvc: Finished line minimization    1.  Mean atomic displacement =    0.0000

* Maximum dynamic memory allocated =    43 MB

outcoor: Relaxed atomic coordinates (fractional):           
    0.00000000    0.00000000    0.00000000   1       1  Fe

siesta: Eigenvalues (eV):
  ik is    eps
   1  1 -13.12 -12.30 -11.25 -10.10  -9.58  -4.60  -0.41   6.24  14.05  32.73
         39.77  43.19  45.22  64.84  69.04
   1  2 -10.59  -9.20  -8.89  -5.49  -4.94  -2.24   1.76   7.29  14.65  34.22
         41.24  45.96  46.85  66.73  70.38
   2  1 -12.71 -12.27 -11.80 -10.00  -9.74  -3.40   0.49   2.49  13.85  34.75
         39.16  42.97  46.08  58.26  66.82
   2  2 -10.06  -9.46  -9.15  -5.41  -5.09  -1.07   2.31   3.89  14.55  37.10
         40.76  44.80  48.12  59.58  68.22
   3  1 -13.12 -12.31 -11.25 -10.10  -9.58  -4.60  -0.41   6.24  14.05  32.73
         39.77  43.19  45.22  64.84  69.05
   3  2 -10.59  -9.20  -8.89  -5.49  -4.94  -2.25   1.77   7.29  14.65  34.22
         41.24  45.96  46.85  66.73  70.37
   4  1 -13.58 -12.35 -10.45 -10.11  -9.39  -6.97   0.43  12.84  14.51  27.74
         31.71  47.70  55.46  71.83 145.41
   4  2 -11.33  -9.13  -8.26  -5.51  -4.84  -3.98   2.48  13.56  14.97  28.91
         33.16  49.33  56.79  73.16 146.09
   5  1 -13.77 -12.32 -10.18 -10.00  -9.14  -8.98   3.00  14.51  16.39  23.90
         25.55  48.62  54.28  69.87  76.99
   5  2 -11.95  -9.04  -7.93  -5.50  -4.91  -4.87   4.68  15.17  16.56  25.33
         27.13  50.25  55.67  71.19  79.19
   6  1 -13.61 -12.19 -11.03 -10.22  -9.86  -8.60   5.85  13.47  16.20  26.44
         30.67  43.11  50.62  57.74  66.52
   6  2 -12.35  -8.90  -8.44  -5.65  -5.08  -4.75   7.30  14.26  16.76  28.04
         32.28  44.85  52.32  59.89  67.94
   7  1 -13.36 -12.13 -11.75 -10.37  -9.87  -8.43   7.98  11.02  16.22  29.90
         35.86  40.18  47.97  50.54  65.55
   7  2 -12.50  -8.87  -8.67  -5.77  -5.13  -4.61   9.33  11.93  16.93  31.46
         37.42  42.52  49.21  52.72  67.01
   8  1 -13.61 -12.19 -11.03 -10.22  -9.86  -8.60   5.85  13.47  16.20  26.44
         30.67  43.11  50.62  57.73  66.52
   8  2 -12.35  -8.91  -8.44  -5.64  -5.08  -4.75   7.30  14.26  16.76  28.04
         32.27  44.85  52.33  59.89  67.94
   9  1 -13.77 -12.32 -10.18 -10.00  -9.14  -8.99   3.01  14.51  16.39  23.90
         25.55  48.62  54.28  69.87  76.99
   9  2 -11.95  -9.05  -7.94  -5.50  -4.91  -4.86   4.68  15.17  16.56  25.33
         27.13  50.25  55.67  71.20  79.19
  10  1 -13.58 -12.35 -10.45 -10.11  -9.39  -6.97   0.43  12.84  14.51  27.74
         31.71  47.70  55.46  71.83 145.41
  10  2 -11.33  -9.13  -8.26  -5.50  -4.84  -3.97   2.48  13.56  14.97  28.90
         33.16  49.33  56.79  73.16 146.08
  11  1 -12.71 -12.27 -11.80 -10.00  -9.74  -3.40   0.49   2.49  13.85  34.75
         39.16  42.97  46.08  58.26  66.82
  11  2 -10.06  -9.46  -9.15  -5.41  -5.09  -1.07   2.31   3.89  14.55  37.10
         40.76  44.80  48.12  59.58  68.22
  12  1 -12.71 -12.27 -11.80 -10.00  -9.74  -3.40   0.49   2.49  13.85  34.75
         39.16  42.97  46.08  58.26  66.82
  12  2 -10.06  -9.45  -9.16  -5.41  -5.09  -1.08   2.32   3.89  14.55  37.10
         40.76  44.80  48.12  59.58  68.22
  13  1 -13.06 -12.29 -11.40 -10.19  -9.70  -6.29   2.80   8.51  14.81  34.28
         38.46  45.30  52.86  63.72  88.87
  13  2 -11.02  -9.20  -8.78  -5.61  -4.95  -3.23   4.43   9.43  15.38  35.52
         39.91  46.89  54.26  65.22  91.01
  14  1 -13.61 -12.19 -11.03 -10.22  -9.86  -8.59   5.85  13.47  16.20  26.44
         30.67  43.11  50.62  57.73  66.52
  14  2 -12.35  -8.90  -8.44  -5.65  -5.08  -4.75   7.30  14.26  16.76  28.04
         32.28  44.85  52.32  59.89  67.94
  15  1 -14.12 -12.07 -11.07 -10.25 -10.06  -9.74   8.62  17.17  19.10  25.35
         25.66  42.10  47.48  54.08  59.71
  15  2 -13.48  -8.71  -8.23  -5.82  -5.61  -5.02   9.98  17.98  19.42  27.05
         27.81  44.19  49.09  56.07  61.00
  16  1 -14.44 -11.90 -11.64 -10.41 -10.02  -9.83  11.67  15.29  19.21  28.33
         33.07  37.24  46.49  47.61  57.26
  16  2 -14.12  -8.50  -8.32  -6.09  -5.73  -4.98  12.91  16.34  19.89  30.17
         34.96  39.14  48.00  49.48  58.77
  17  1 -14.44 -11.90 -11.64 -10.41 -10.02  -9.83  11.67  15.29  19.21  28.33
         33.07  37.24  46.49  47.61  57.26
  17  2 -14.12  -8.51  -8.32  -6.08  -5.73  -4.98  12.91  16.34  19.89  30.16
         34.96  39.14  48.00  49.48  58.77
  18  1 -14.12 -12.07 -11.07 -10.25 -10.06  -9.74   8.62  17.17  19.10  25.35
         25.67  42.10  47.48  54.08  59.70
  18  2 -13.48  -8.72  -8.23  -5.81  -5.60  -5.02   9.98  17.98  19.42  27.04
         27.81  44.19  49.09  56.07  61.01
  19  1 -13.61 -12.19 -11.03 -10.22  -9.86  -8.60   5.85  13.47  16.20  26.44
         30.67  43.11  50.62  57.73  66.52
  19  2 -12.35  -8.91  -8.44  -5.64  -5.08  -4.75   7.30  14.26  16.76  28.04
         32.27  44.85  52.33  59.89  67.94
  20  1 -13.06 -12.28 -11.40 -10.19  -9.70  -6.29   2.80   8.51  14.81  34.28
         38.46  45.30  52.86  63.71  88.87
  20  2 -11.02  -9.21  -8.78  -5.61  -4.95  -3.22   4.43   9.43  15.38  35.52
         39.91  46.89  54.26  65.23  91.01
  21  1 -13.12 -12.31 -11.25 -10.10  -9.58  -4.60  -0.41   6.24  14.05  32.73
         39.77  43.19  45.22  64.84  69.05
  21  2 -10.59  -9.20  -8.89  -5.49  -4.94  -2.25   1.77   7.29  14.65  34.22
         41.24  45.96  46.85  66.73  70.37
  22  1 -13.06 -12.29 -11.40 -10.19  -9.70  -6.29   2.80   8.51  14.81  34.28
         38.46  45.30  52.86  63.72  88.87
  22  2 -11.02  -9.20  -8.78  -5.61  -4.95  -3.23   4.43   9.43  15.38  35.52
         39.91  46.89  54.26  65.22  91.01
  23  1 -13.36 -12.13 -11.75 -10.37  -9.87  -8.42   7.98  11.02  16.22  29.90
         35.86  40.18  47.97  50.54  65.55
  23  2 -12.50  -8.87  -8.66  -5.78  -5.13  -4.61   9.33  11.92  16.93  31.46
         37.42  42.52  49.21  52.72  67.00
  24  1 -14.44 -11.90 -11.64 -10.41 -10.02  -9.82  11.67  15.29  19.21  28.33
         33.07  37.24  46.49  47.61  57.26
  24  2 -14.12  -8.50  -8.31  -6.09  -5.73  -4.98  12.91  16.34  19.89  30.17
         34.96  39.14  48.01  49.48  58.77
  25  1 -15.38 -11.75 -11.44 -10.56 -10.36 -10.12  15.03  20.89  22.89  28.39
         29.23  38.18  45.43  46.65  48.59
  25  2 -15.22  -8.27  -7.99  -6.82  -5.58  -5.11  16.28  21.83  23.45  29.72
         31.91  39.99  47.02  48.79  49.84
  26  1 -15.73 -11.61 -11.54 -10.70 -10.39 -10.10  18.17  19.73  23.06  30.75
         35.01  36.23  39.54  45.08  48.04
  26  2 -15.61  -8.10  -8.02  -7.00  -5.57  -5.10  19.40  20.80  23.86  32.47
         37.69  37.73  40.75  46.77  49.75
  27  1 -15.38 -11.75 -11.44 -10.56 -10.36 -10.12  15.03  20.89  22.89  28.39
         29.23  38.18  45.43  46.65  48.59
  27  2 -15.22  -8.28  -7.99  -6.81  -5.58  -5.11  16.28  21.83  23.46  29.71
         31.90  39.99  47.02  48.79  49.85
  28  1 -14.44 -11.90 -11.64 -10.41 -10.02  -9.83  11.67  15.29  19.21  28.33
         33.07  37.24  46.49  47.61  57.26
  28  2 -14.12  -8.51  -8.32  -6.08  -5.73  -4.98  12.91  16.34  19.89  30.16
         34.96  39.14  48.00  49.48  58.77
  29  1 -13.36 -12.13 -11.75 -10.37  -9.87  -8.43   7.98  11.02  16.22  29.90
         35.86  40.18  47.97  50.54  65.55
  29  2 -12.50  -8.87  -8.67  -5.77  -5.13  -4.61   9.33  11.93  16.93  31.46
         37.42  42.52  49.21  52.72  67.01
  30  1 -13.06 -12.29 -11.40 -10.19  -9.70  -6.29   2.80   8.51  14.81  34.28
         38.46  45.30  52.86  63.72  88.87
  30  2 -11.02  -9.20  -8.78  -5.61  -4.95  -3.23   4.43   9.43  15.38  35.52
         39.91  46.89  54.25  65.23  91.01
  31  1 -13.58 -12.35 -10.45 -10.11  -9.39  -6.97   0.43  12.84  14.51  27.74
         31.71  47.70  55.46  71.83 145.41
  31  2 -11.33  -9.13  -8.26  -5.51  -4.84  -3.98   2.48  13.56  14.97  28.91
         33.16  49.33  56.79  73.16 146.09
  32  1 -13.61 -12.19 -11.03 -10.22  -9.86  -8.59   5.85  13.47  16.20  26.44
         30.67  43.11  50.62  57.73  66.52
  32  2 -12.35  -8.90  -8.44  -5.65  -5.08  -4.75   7.30  14.26  16.76  28.04
         32.28  44.85  52.32  59.89  67.94
  33  1 -14.44 -11.90 -11.64 -10.41 -10.02  -9.82  11.67  15.29  19.21  28.33
         33.07  37.24  46.49  47.61  57.26
  33  2 -14.12  -8.50  -8.31  -6.09  -5.73  -4.98  12.91  16.34  19.89  30.17
         34.96  39.14  48.01  49.48  58.77
  34  1 -15.73 -11.61 -11.54 -10.70 -10.39 -10.10  18.17  19.73  23.06  30.75
         35.01  36.23  39.54  45.08  48.04
  34  2 -15.61  -8.10  -8.01  -7.01  -5.57  -5.10  19.40  20.80  23.86  32.47
         37.68  37.73  40.75  46.77  49.75
  35  1 -16.52 -11.48 -11.38 -11.16 -10.26 -10.15  22.90  25.53  27.47  31.18
         32.58  37.42  39.13  40.23  41.90
  35  2 -16.43  -7.91  -7.81  -7.52  -5.34  -5.17  24.14  26.55  28.30  32.48
         35.35  38.93  40.33  42.52  43.46
  36  1 -16.52 -11.48 -11.38 -11.16 -10.26 -10.15  22.90  25.53  27.47  31.19
         32.58  37.42  39.12  40.23  41.90
  36  2 -16.43  -7.92  -7.81  -7.52  -5.34  -5.17  24.14  26.55  28.30  32.47
         35.35  38.93  40.34  42.52  43.46
  37  1 -15.73 -11.61 -11.54 -10.70 -10.39 -10.10  18.17  19.73  23.06  30.75
         35.01  36.23  39.54  45.08  48.04
  37  2 -15.61  -8.10  -8.02  -7.00  -5.57  -5.10  19.40  20.80  23.86  32.47
         37.69  37.73  40.75  46.77  49.75
  38  1 -14.44 -11.90 -11.64 -10.41 -10.02  -9.83  11.67  15.29  19.21  28.33
         33.07  37.24  46.49  47.61  57.26
  38  2 -14.12  -8.50  -8.32  -6.09  -5.73  -4.98  12.91  16.34  19.89  30.17
         34.96  39.14  48.00  49.48  58.77
  39  1 -13.61 -12.19 -11.03 -10.22  -9.86  -8.60   5.85  13.47  16.20  26.44
         30.67  43.11  50.62  57.74  66.52
  39  2 -12.35  -8.90  -8.44  -5.65  -5.08  -4.75   7.30  14.26  16.76  28.04
         32.28  44.85  52.32  59.89  67.94
  40  1 -13.58 -12.35 -10.45 -10.11  -9.39  -6.97   0.43  12.84  14.51  27.74
         31.71  47.70  55.46  71.83 145.41
  40  2 -11.33  -9.13  -8.26  -5.51  -4.84  -3.98   2.48  13.56  14.97  28.91
         33.16  49.33  56.79  73.16 146.09
  41  1 -13.77 -12.32 -10.18 -10.00  -9.14  -8.98   3.00  14.51  16.39  23.90
         25.55  48.62  54.28  69.87  76.99
  41  2 -11.95  -9.04  -7.93  -5.50  -4.91  -4.87   4.68  15.17  16.56  25.33
         27.13  50.25  55.67  71.19  79.19
  42  1 -14.12 -12.07 -11.07 -10.25 -10.06  -9.74   8.62  17.17  19.10  25.35
         25.66  42.10  47.48  54.08  59.71
  42  2 -13.48  -8.71  -8.23  -5.82  -5.61  -5.02   9.98  17.98  19.42  27.05
         27.81  44.19  49.09  56.07  61.00
  43  1 -15.38 -11.75 -11.44 -10.56 -10.36 -10.12  15.03  20.89  22.89  28.39
         29.23  38.18  45.43  46.65  48.59
  43  2 -15.22  -8.28  -7.99  -6.82  -5.58  -5.11  16.28  21.83  23.45  29.72
         31.91  39.99  47.02  48.79  49.84
  44  1 -16.52 -11.48 -11.38 -11.16 -10.26 -10.15  22.90  25.53  27.47  31.18
         32.58  37.42  39.13  40.23  41.90
  44  2 -16.43  -7.91  -7.81  -7.52  -5.34  -5.17  24.14  26.55  28.30  32.48
         35.35  38.93  40.33  42.52  43.46
  45  1 -16.93 -11.38 -11.38 -11.37 -10.16 -10.16  30.60  30.60  30.60  32.43
         32.43  32.44  33.66  39.01  39.01
  45  2 -16.85  -7.78  -7.77  -7.77  -5.19  -5.19  31.56  31.56  31.56  33.71
         33.71  33.71  37.69  40.55  40.55
  46  1 -13.78 -12.42 -10.09  -9.98  -8.67  -7.94  -0.41  13.52  15.35  23.31
         28.01  49.05  56.64  74.17 136.50
  46  2 -11.46  -9.17  -7.85  -5.45  -4.86  -4.47   1.90  14.10  15.47  24.76
         29.34  50.69  57.97  75.51 137.08
  47  1 -13.58 -12.35 -10.45 -10.11  -9.39  -6.97   0.43  12.84  14.51  27.74
         31.71  47.70  55.46  71.83 145.41
  47  2 -11.33  -9.13  -8.26  -5.51  -4.84  -3.98   2.48  13.56  14.97  28.91
         33.16  49.33  56.79  73.16 146.09
  48  1 -13.06 -12.29 -11.40 -10.19  -9.70  -6.29   2.80   8.51  14.81  34.28
         38.46  45.30  52.86  63.72  88.87
  48  2 -11.02  -9.20  -8.78  -5.61  -4.95  -3.23   4.43   9.43  15.38  35.52
         39.91  46.89  54.25  65.23  91.01
  49  1 -13.06 -12.28 -11.40 -10.19  -9.70  -6.29   2.80   8.51  14.81  34.28
         38.46  45.30  52.86  63.71  88.87
  49  2 -11.02  -9.21  -8.78  -5.61  -4.95  -3.22   4.43   9.43  15.38  35.52
         39.91  46.89  54.26  65.23  91.01
  50  1 -13.58 -12.35 -10.45 -10.11  -9.39  -6.97   0.43  12.84  14.51  27.74
         31.71  47.70  55.46  71.83 145.41
  50  2 -11.33  -9.13  -8.26  -5.50  -4.84  -3.97   2.48  13.56  14.97  28.90
         33.16  49.33  56.79  73.16 146.08
  51  1 -13.58 -12.35 -10.45 -10.11  -9.39  -6.97   0.43  12.84  14.51  27.74
         31.71  47.70  55.46  71.83 145.41
  51  2 -11.33  -9.13  -8.26  -5.50  -4.84  -3.97   2.48  13.56  14.97  28.90
         33.16  49.33  56.79  73.16 146.08
  52  1 -13.06 -12.28 -11.40 -10.19  -9.70  -6.29   2.80   8.51  14.81  34.28
         38.46  45.30  52.86  63.71  88.87
  52  2 -11.02  -9.21  -8.78  -5.61  -4.95  -3.22   4.43   9.43  15.38  35.52
         39.91  46.89  54.26  65.23  91.01
  53  1 -13.06 -12.29 -11.40 -10.19  -9.70  -6.29   2.80   8.51  14.81  34.28
         38.46  45.30  52.86  63.72  88.87
  53  2 -11.02  -9.20  -8.78  -5.61  -4.95  -3.23   4.43   9.43  15.38  35.52
         39.91  46.89  54.25  65.23  91.01
  54  1 -13.58 -12.35 -10.45 -10.11  -9.39  -6.97   0.43  12.84  14.51  27.74
         31.71  47.70  55.46  71.83 145.41
  54  2 -11.33  -9.13  -8.26  -5.51  -4.84  -3.98   2.48  13.56  14.97  28.91
         33.16  49.33  56.79  73.16 146.09
  55  1 -13.78 -12.42 -10.09  -9.98  -8.67  -7.94  -0.41  13.52  15.35  23.31
         28.01  49.05  56.64  74.17 136.50
  55  2 -11.46  -9.17  -7.85  -5.45  -4.86  -4.47   1.90  14.10  15.47  24.76
         29.34  50.69  57.97  75.51 137.08
  56  1 -13.58 -12.35 -10.45 -10.11  -9.39  -6.97   0.43  12.84  14.51  27.74
         31.71  47.70  55.46  71.83 145.41
  56  2 -11.33  -9.13  -8.26  -5.51  -4.84  -3.98   2.48  13.56  14.97  28.91
         33.16  49.33  56.79  73.16 146.09
  57  1 -13.06 -12.29 -11.40 -10.19  -9.70  -6.29   2.80   8.51  14.81  34.28
         38.46  45.30  52.86  63.72  88.87
  57  2 -11.02  -9.20  -8.78  -5.61  -4.95  -3.23   4.43   9.43  15.38  35.52
         39.91  46.89  54.25  65.23  91.01
  58  1 -13.06 -12.28 -11.40 -10.19  -9.70  -6.29   2.80   8.51  14.81  34.28
         38.46  45.30  52.86  63.71  88.87
  58  2 -11.02  -9.21  -8.78  -5.61  -4.95  -3.22   4.43   9.43  15.38  35.52
         39.91  46.89  54.26  65.23  91.01
  59  1 -13.58 -12.35 -10.45 -10.11  -9.39  -6.97   0.43  12.84  14.51  27.74
         31.71  47.70  55.46  71.83 145.41
  59  2 -11.33  -9.13  -8.26  -5.50  -4.84  -3.97   2.48  13.56  14.97  28.90
         33.16  49.33  56.79  73.16 146.08
  60  1 -13.78 -12.42 -10.09  -9.98  -8.67  -7.94  -0.41  13.52  15.35  23.31
         28.01  49.05  56.64  74.17 136.50
  60  2 -11.46  -9.18  -7.85  -5.45  -4.86  -4.46   1.89  14.10  15.47  24.75
         29.34  50.69  57.97  75.51 137.08
  61  1 -12.73 -12.17 -12.07  -9.97  -9.41  -2.87  -0.26   3.22  18.81  30.18
         35.30  36.23  45.59  61.15  65.79
  61  2  -9.90  -9.34  -8.93  -5.75  -5.16  -0.75   1.72   4.51  19.50  31.87
         36.93  38.15  48.20  62.67  67.09
  62  1 -12.73 -12.17 -12.07  -9.98  -9.40  -2.87  -0.26   3.22  18.81  30.18
         35.30  36.23  45.59  61.15  65.79
  62  2  -9.89  -9.35  -8.93  -5.75  -5.16  -0.76   1.72   4.51  19.50  31.87
         36.93  38.15  48.20  62.67  67.09
  63  1 -13.22 -12.00 -11.60 -10.31  -9.07  -5.64   0.59   8.76  19.13  28.25
         35.05  39.71  53.89  68.60  89.36
  63  2 -10.75  -8.95  -8.60  -6.02  -4.84  -3.00   2.55   9.65  19.83  29.76
         36.41  41.31  55.29  69.93  91.78
  64  1 -13.54 -12.08 -11.11 -10.25  -9.02  -7.97   2.98  12.37  19.64  26.99
         27.26  41.48  55.29  68.31  81.10
  64  2 -11.63  -8.77  -8.33  -5.88  -4.92  -4.37   4.65  13.18  20.08  28.55
         28.67  42.99  56.65  69.62  82.82
  65  1 -13.61 -12.19 -11.03 -10.22  -9.86  -8.60   5.85  13.47  16.20  26.44
         30.67  43.11  50.62  57.74  66.52
  65  2 -12.35  -8.90  -8.44  -5.65  -5.08  -4.75   7.30  14.26  16.76  28.04
         32.28  44.85  52.32  59.89  67.94
  66  1 -13.45 -12.18 -11.91 -10.18 -10.07  -8.53   8.61  12.05  12.79  35.47
         35.87  42.83  46.86  47.19  65.93
  66  2 -12.79  -8.93  -8.84  -5.37  -5.06  -4.90   9.85  12.95  13.74  36.93
         38.23  44.50  48.47  49.10  67.37
  67  1 -13.45 -12.18 -11.91 -10.18 -10.07  -8.53   8.61  12.06  12.79  35.47
         35.87  42.83  46.85  47.19  65.93
  67  2 -12.79  -8.93  -8.84  -5.37  -5.06  -4.90   9.85  12.95  13.74  36.93
         38.22  44.50  48.47  49.10  67.37
  68  1 -13.61 -12.19 -11.03 -10.22  -9.86  -8.60   5.85  13.47  16.20  26.44
         30.67  43.11  50.62  57.73  66.52
  68  2 -12.35  -8.91  -8.44  -5.64  -5.07  -4.75   7.30  14.26  16.76  28.04
         32.27  44.85  52.32  59.89  67.94
  69  1 -13.53 -12.08 -11.11 -10.25  -9.02  -7.97   2.98  12.37  19.64  27.00
         27.26  41.48  55.29  68.31  81.11
  69  2 -11.63  -8.78  -8.33  -5.87  -4.91  -4.37   4.65  13.18  20.08  28.54
         28.67  42.99  56.65  69.62  82.82
  70  1 -13.22 -11.99 -11.60 -10.31  -9.07  -5.64   0.59   8.76  19.13  28.26
         35.05  39.71  53.89  68.59  89.35
  70  2 -10.75  -8.95  -8.61  -6.01  -4.84  -2.99   2.54   9.64  19.84  29.76
         36.41  41.31  55.29  69.93  91.77
  71  1 -12.73 -12.17 -12.07  -9.98  -9.40  -2.87  -0.26   3.22  18.81  30.18
         35.30  36.23  45.59  61.15  65.79
  71  2  -9.89  -9.35  -8.93  -5.75  -5.16  -0.76   1.72   4.51  19.50  31.87
         36.93  38.15  48.20  62.67  67.09
  72  1 -12.70 -12.48 -11.67 -10.20  -9.42  -5.30   2.85   5.03  19.59  29.47
         34.67  42.25  53.32  55.99  72.00
  72  2 -10.49  -9.27  -8.50  -6.02  -5.12  -2.53   4.51   6.08  20.30  31.11
         36.01  43.66  55.87  57.30  73.84
  73  1 -13.20 -12.08 -11.52 -10.47  -9.53  -7.88   5.96  10.82  20.63  26.61
         30.87  38.36  51.85  58.18  65.11
  73  2 -11.77  -8.75  -8.29  -6.28  -5.28  -4.15   7.41  11.73  21.08  28.23
         32.25  40.25  53.34  60.16  66.71
  74  1 -13.84 -11.85 -11.49 -10.46  -9.78  -9.50   8.71  14.88  17.82  28.46
         29.13  33.82  49.21  54.00  58.04
  74  2 -13.15  -8.46  -8.25  -6.15  -5.88  -4.71  10.06  15.81  18.49  30.39
         30.45  35.95  51.15  55.85  59.32
  75  1 -14.44 -11.90 -11.64 -10.41 -10.02  -9.83  11.67  15.29  19.21  28.33
         33.07  37.24  46.49  47.61  57.26
  75  2 -14.12  -8.50  -8.32  -6.09  -5.73  -4.98  12.91  16.34  19.89  30.17
         34.96  39.14  48.00  49.48  58.77
  76  1 -14.68 -11.88 -11.87 -10.21 -10.21  -9.83  14.54  15.49  15.49  35.21
         37.44  37.44  42.65  42.65  57.49
  76  2 -14.47  -8.48  -8.47  -6.08  -5.30  -5.30  15.77  16.48  16.48  38.55
         38.55  38.61  44.22  44.22  59.07
  77  1 -14.44 -11.90 -11.64 -10.41 -10.02  -9.83  11.67  15.29  19.21  28.34
         33.07  37.24  46.49  47.61  57.26
  77  2 -14.12  -8.51  -8.32  -6.08  -5.73  -4.98  12.91  16.34  19.89  30.16
         34.96  39.14  48.00  49.48  58.77
  78  1 -13.84 -11.85 -11.49 -10.46  -9.79  -9.50   8.71  14.88  17.82  28.46
         29.13  33.82  49.21  54.00  58.03
  78  2 -13.15  -8.46  -8.25  -6.14  -5.87  -4.71  10.05  15.81  18.49  30.38
         30.45  35.95  51.15  55.85  59.32
  79  1 -13.20 -12.07 -11.52 -10.47  -9.53  -7.88   5.96  10.82  20.63  26.61
         30.87  38.36  51.85  58.18  65.10
  79  2 -11.77  -8.76  -8.30  -6.28  -5.27  -4.15   7.41  11.73  21.08  28.23
         32.25  40.25  53.34  60.16  66.71
  80  1 -12.71 -12.48 -11.67 -10.20  -9.43  -5.30   2.86   5.03  19.59  29.47
         34.67  42.25  53.32  55.99  71.99
  80  2 -10.49  -9.28  -8.50  -6.02  -5.12  -2.53   4.51   6.08  20.30  31.11
         36.01  43.66  55.87  57.30  73.85
  81  1 -13.22 -12.00 -11.60 -10.31  -9.07  -5.64   0.59   8.76  19.13  28.25
         35.05  39.71  53.89  68.60  89.36
  81  2 -10.75  -8.95  -8.60  -6.02  -4.84  -3.00   2.55   9.65  19.83  29.76
         36.41  41.31  55.29  69.93  91.78
  82  1 -13.20 -12.08 -11.52 -10.47  -9.53  -7.88   5.96  10.82  20.63  26.61
         30.87  38.36  51.85  58.18  65.11
  82  2 -11.77  -8.75  -8.29  -6.28  -5.28  -4.15   7.41  11.73  21.08  28.23
         32.25  40.25  53.34  60.16  66.71
  83  1 -13.92 -11.79 -11.48 -10.79 -10.03  -9.42  11.79  12.25  19.06  27.75
         29.20  37.52  47.19  48.66  55.80
  83  2 -13.44  -8.23  -8.11  -6.49  -6.17  -4.64  13.04  13.32  19.71  29.36
         31.04  39.96  48.43  50.60  57.29
  84  1 -15.03 -11.55 -11.42 -10.73 -10.61  -9.87  15.11  18.41  20.01  30.03
         31.85  33.59  46.05  47.19  48.57
  84  2 -14.83  -8.06  -7.91  -6.88  -6.14  -4.84  16.29  19.43  20.88  31.61
         33.09  36.40  47.82  48.43  50.39
  85  1 -15.73 -11.61 -11.54 -10.70 -10.39 -10.10  18.17  19.73  23.06  30.75
         35.01  36.23  39.54  45.08  48.04
  85  2 -15.61  -8.10  -8.02  -7.00  -5.57  -5.10  19.40  20.80  23.86  32.47
         37.69  37.73  40.75  46.77  49.75
  86  1 -15.73 -11.60 -11.54 -10.70 -10.39 -10.10  18.17  19.73  23.06  30.75
         35.01  36.23  39.54  45.08  48.04
  86  2 -15.61  -8.11  -8.01  -7.00  -5.57  -5.10  19.40  20.80  23.86  32.46
         37.69  37.73  40.75  46.77  49.75
  87  1 -15.03 -11.55 -11.42 -10.73 -10.62  -9.87  15.11  18.41  20.01  30.03
         31.85  33.59  46.05  47.18  48.57
  87  2 -14.83  -8.07  -7.91  -6.87  -6.14  -4.84  16.29  19.43  20.88  31.61
         33.08  36.40  47.82  48.43  50.39
  88  1 -13.92 -11.79 -11.48 -10.78 -10.03  -9.42  11.79  12.25  19.06  27.75
         29.20  37.52  47.19  48.66  55.79
  88  2 -13.44  -8.23  -8.11  -6.49  -6.16  -4.64  13.03  13.32  19.71  29.36
         31.03  39.96  48.43  50.60  57.29
  89  1 -13.20 -12.08 -11.52 -10.47  -9.53  -7.88   5.96  10.82  20.63  26.61
         30.87  38.36  51.85  58.18  65.10
  89  2 -11.77  -8.75  -8.29  -6.28  -5.27  -4.15   7.41  11.73  21.08  28.23
         32.25  40.26  53.34  60.16  66.71
  90  1 -13.22 -12.00 -11.60 -10.31  -9.07  -5.64   0.59   8.76  19.13  28.25
         35.05  39.71  53.89  68.60  89.36
  90  2 -10.75  -8.96  -8.60  -6.02  -4.84  -2.99   2.55   9.65  19.83  29.76
         36.41  41.31  55.29  69.93  91.78
  91  1 -13.54 -12.08 -11.11 -10.25  -9.02  -7.97   2.98  12.37  19.64  26.99
         27.26  41.48  55.29  68.31  81.10
  91  2 -11.63  -8.77  -8.33  -5.88  -4.92  -4.37   4.65  13.18  20.08  28.55
         28.67  42.99  56.65  69.62  82.82
  92  1 -13.84 -11.85 -11.49 -10.46  -9.78  -9.50   8.71  14.88  17.82  28.46
         29.13  33.82  49.21  54.00  58.04
  92  2 -13.15  -8.46  -8.25  -6.15  -5.88  -4.71  10.06  15.81  18.49  30.39
         30.45  35.95  51.15  55.85  59.32
  93  1 -15.03 -11.55 -11.42 -10.73 -10.61  -9.87  15.11  18.41  20.01  30.03
         31.85  33.59  46.05  47.19  48.57
  93  2 -14.83  -8.06  -7.91  -6.88  -6.14  -4.84  16.29  19.43  20.88  31.61
         33.09  36.40  47.82  48.43  50.39
  94  1 -16.11 -11.36 -11.36 -11.16 -10.52 -10.02  22.05  22.50  22.50  32.80
         33.39  35.46  39.99  40.00  46.50
  94  2 -16.01  -7.81  -7.80  -7.51  -5.71  -4.99  23.19  23.55  23.55  34.36
         34.65  38.78  41.20  41.20  48.34
  95  1 -16.52 -11.48 -11.38 -11.16 -10.26 -10.15  22.90  25.53  27.47  31.19
         32.58  37.42  39.12  40.23  41.90
  95  2 -16.43  -7.92  -7.81  -7.52  -5.34  -5.17  24.14  26.55  28.30  32.47
         35.35  38.93  40.34  42.52  43.46
  96  1 -16.11 -11.36 -11.36 -11.16 -10.52 -10.02  22.05  22.50  22.50  32.80
         33.39  35.46  39.99  40.00  46.50
  96  2 -16.01  -7.81  -7.80  -7.51  -5.71  -4.99  23.19  23.55  23.55  34.36
         34.65  38.78  41.20  41.20  48.34
  97  1 -15.03 -11.55 -11.42 -10.73 -10.61  -9.87  15.11  18.41  20.01  30.03
         31.85  33.59  46.05  47.19  48.57
  97  2 -14.83  -8.06  -7.91  -6.88  -6.14  -4.84  16.29  19.43  20.88  31.61
         33.09  36.40  47.82  48.43  50.39
  98  1 -13.84 -11.85 -11.49 -10.46  -9.78  -9.50   8.71  14.88  17.82  28.46
         29.13  33.82  49.21  54.00  58.04
  98  2 -13.15  -8.46  -8.25  -6.15  -5.88  -4.71  10.06  15.81  18.49  30.39
[...]
 504  2 -11.33  -9.13  -8.26  -5.51  -4.84  -3.98   2.48  13.56  14.97  28.91
         33.16  49.33  56.79  73.16 146.09
 505  1 -13.78 -12.42 -10.09  -9.98  -8.67  -7.94  -0.41  13.52  15.35  23.31
         28.01  49.05  56.64  74.17 136.50
 505  2 -11.46  -9.17  -7.85  -5.45  -4.86  -4.47   1.90  14.10  15.47  24.76
         29.34  50.69  57.97  75.51 137.08
 506  1 -13.58 -12.35 -10.45 -10.11  -9.39  -6.97   0.43  12.84  14.51  27.74
         31.71  47.70  55.46  71.83 145.41
 506  2 -11.33  -9.13  -8.26  -5.51  -4.84  -3.98   2.48  13.56  14.97  28.91
         33.16  49.33  56.79  73.16 146.09
 507  1 -13.06 -12.29 -11.40 -10.19  -9.70  -6.29   2.80   8.51  14.81  34.28
         38.46  45.30  52.86  63.72  88.87
 507  2 -11.02  -9.20  -8.78  -5.61  -4.95  -3.23   4.43   9.43  15.38  35.52
         39.91  46.89  54.25  65.23  91.01
 508  1 -13.06 -12.28 -11.40 -10.19  -9.70  -6.29   2.80   8.51  14.81  34.28
         38.46  45.30  52.86  63.71  88.87
 508  2 -11.02  -9.21  -8.78  -5.61  -4.95  -3.22   4.43   9.43  15.38  35.52
         39.91  46.89  54.26  65.23  91.01
 509  1 -13.58 -12.35 -10.45 -10.11  -9.39  -6.97   0.43  12.84  14.51  27.74
         31.71  47.70  55.46  71.83 145.41
 509  2 -11.33  -9.13  -8.26  -5.50  -4.84  -3.97   2.48  13.56  14.97  28.90
         33.16  49.33  56.79  73.16 146.08
 510  1 -13.78 -12.42 -10.09  -9.98  -8.67  -7.94  -0.41  13.52  15.35  23.31
         28.01  49.05  56.64  74.17 136.50
 510  2 -11.46  -9.18  -7.85  -5.45  -4.86  -4.46   1.89  14.10  15.47  24.75
         29.34  50.69  57.97  75.51 137.08
 511  1 -13.22 -11.99 -11.60 -10.31  -9.07  -5.64   0.59   8.76  19.13  28.26
         35.05  39.71  53.89  68.59  89.35
 511  2 -10.75  -8.95  -8.61  -6.01  -4.84  -2.99   2.54   9.64  19.84  29.76
         36.41  41.31  55.29  69.93  91.77
 512  1 -12.71 -12.48 -11.67 -10.20  -9.43  -5.30   2.86   5.03  19.59  29.47
         34.67  42.25  53.32  55.99  71.99
 512  2 -10.49  -9.28  -8.50  -6.02  -5.12  -2.53   4.51   6.08  20.30  31.11
         36.01  43.66  55.87  57.30  73.85
 513  1 -13.22 -12.00 -11.60 -10.31  -9.07  -5.64   0.59   8.76  19.13  28.25
         35.05  39.71  53.89  68.60  89.36
 513  2 -10.75  -8.96  -8.60  -6.02  -4.84  -2.99   2.55   9.65  19.83  29.76
         36.41  41.31  55.29  69.93  91.78
 514  1 -13.57 -12.17 -10.94 -10.27  -8.70  -6.64  -0.44  11.45  18.73  26.61
         28.60  44.19  55.96  72.65 136.16
 514  2 -11.14  -8.89  -8.41  -5.80  -4.50  -4.02   1.83  12.18  19.26  27.91
         30.09  45.82  57.24  73.97 137.15
 515  1 -13.58 -12.35 -10.45 -10.11  -9.39  -6.97   0.43  12.84  14.51  27.74
         31.71  47.70  55.46  71.83 145.41
 515  2 -11.33  -9.13  -8.26  -5.51  -4.84  -3.98   2.48  13.56  14.97  28.91
         33.16  49.33  56.79  73.16 146.09
 516  1 -13.21 -12.39 -10.99 -10.08  -9.99  -6.65   2.74   9.93  14.76  34.65
         39.05  49.06  52.20  68.00 154.34
 516  2 -11.23  -9.24  -8.82  -5.31  -4.90  -3.54   4.35  10.74  15.35  35.71
         40.63  50.70  53.50  69.32 155.35
 517  1 -12.72 -12.32 -11.89 -10.09  -9.97  -6.50   5.21   7.54  14.04  40.90
         43.79  47.98  48.92  63.11 115.65
 517  2 -11.09  -9.32  -9.18  -5.23  -4.94  -3.30   6.58   8.57  14.56  41.99
         45.37  49.62  50.16  64.53 117.31
 518  1 -13.21 -12.39 -10.99 -10.08  -9.99  -6.65   2.74   9.93  14.76  34.65
         39.05  49.06  52.20  68.00 154.33
 518  2 -11.23  -9.25  -8.82  -5.31  -4.90  -3.54   4.35  10.74  15.35  35.71
         40.63  50.70  53.51  69.32 155.34
 519  1 -13.58 -12.35 -10.45 -10.11  -9.39  -6.97   0.43  12.84  14.51  27.74
         31.71  47.70  55.46  71.83 145.41
 519  2 -11.33  -9.13  -8.26  -5.50  -4.84  -3.97   2.48  13.56  14.97  28.90
         33.16  49.33  56.79  73.16 146.09
 520  1 -13.57 -12.17 -10.94 -10.27  -8.70  -6.64  -0.44  11.45  18.73  26.62
         28.60  44.19  55.96  72.65 136.15
 520  2 -11.14  -8.89  -8.41  -5.79  -4.49  -4.02   1.83  12.18  19.26  27.91
         30.09  45.82  57.24  73.97 137.14
 521  1 -13.00 -12.65 -11.28 -10.10  -9.06  -3.74   1.28   5.10  21.51  27.67
         31.49  41.04  50.53  63.07  71.10
 521  2 -10.12  -9.49  -7.90  -6.22  -4.95  -1.60   2.91   6.11  23.09  29.02
         32.98  42.19  52.56  64.57  73.16
 522  1 -13.00 -12.65 -11.28 -10.10  -9.06  -3.74   1.28   5.10  21.51  27.67
         31.49  41.04  50.53  63.08  71.10
 522  2 -10.12  -9.49  -7.90  -6.22  -4.95  -1.61   2.91   6.12  23.09  29.02
         32.98  42.19  52.56  64.57  73.16
 523  1 -13.20 -12.16 -11.46 -10.46  -8.77  -4.42  -0.25   8.11  20.45  31.08
         33.90  34.06  53.34  69.11  99.93
 523  2 -10.37  -9.27  -8.07  -6.44  -4.59  -2.33   1.82   8.91  21.78  32.60
         35.25  35.54  54.67  70.38 102.66
 524  1 -13.22 -12.00 -11.60 -10.31  -9.07  -5.64   0.59   8.76  19.13  28.25
         35.05  39.71  53.89  68.60  89.36
 524  2 -10.75  -8.96  -8.60  -6.02  -4.84  -2.99   2.55   9.65  19.83  29.76
         36.41  41.31  55.29  69.93  91.78
 525  1 -13.06 -12.29 -11.40 -10.19  -9.70  -6.29   2.80   8.51  14.81  34.28
         38.46  45.30  52.86  63.72  88.87
 525  2 -11.02  -9.20  -8.78  -5.61  -4.95  -3.23   4.43   9.43  15.38  35.52
         39.91  46.89  54.25  65.23  91.01
 526  1 -12.72 -12.32 -11.89 -10.09  -9.97  -6.50   5.21   7.54  14.04  40.90
         43.79  47.98  48.92  63.11 115.65
 526  2 -11.09  -9.32  -9.18  -5.23  -4.94  -3.30   6.58   8.57  14.56  41.99
         45.37  49.62  50.16  64.53 117.31
 527  1 -12.72 -12.32 -11.89 -10.10  -9.97  -6.50   5.21   7.54  14.04  40.91
         43.79  47.98  48.92  63.11 115.65
 527  2 -11.09  -9.32  -9.19  -5.23  -4.94  -3.30   6.58   8.57  14.56  41.99
         45.37  49.62  50.17  64.53 117.31
 528  1 -13.06 -12.29 -11.40 -10.19  -9.70  -6.29   2.80   8.51  14.81  34.28
         38.46  45.30  52.86  63.72  88.87
 528  2 -11.02  -9.21  -8.79  -5.60  -4.94  -3.23   4.43   9.43  15.38  35.52
         39.91  46.89  54.26  65.23  91.01
 529  1 -13.22 -11.99 -11.60 -10.31  -9.07  -5.64   0.59   8.77  19.13  28.25
         35.05  39.71  53.89  68.59  89.36
 529  2 -10.75  -8.96  -8.61  -6.01  -4.83  -3.00   2.54   9.64  19.83  29.76
         36.40  41.31  55.29  69.93  91.78
 530  1 -13.20 -12.16 -11.46 -10.46  -8.77  -4.42  -0.25   8.11  20.45  31.08
         33.90  34.06  53.34  69.11  99.92
 530  2 -10.38  -9.27  -8.08  -6.43  -4.58  -2.33   1.81   8.91  21.78  32.60
         35.25  35.54  54.67  70.39 102.65
 531  1 -13.31 -13.29 -10.31  -9.51  -9.06  -1.59   2.12   2.89  17.91  20.90
         33.62  40.61  51.74  60.83  65.15
 531  2 -10.14  -9.89  -6.76  -5.65  -4.97  -0.13   3.21   3.81  19.96  22.71
         34.32  43.19  53.58  62.07  66.57
 532  1 -13.27 -13.06 -10.44 -10.03  -8.86  -1.92   0.34   5.11  17.32  24.04
         36.05  43.58  44.70  65.45  70.61
 532  2  -9.97  -9.93  -6.85  -6.35  -4.70  -0.42   1.91   5.82  19.32  25.83
         36.94  45.86  46.11  66.68  72.65
 533  1 -13.00 -12.65 -11.28 -10.10  -9.06  -3.74   1.28   5.10  21.51  27.67
         31.49  41.04  50.53  63.08  71.10
 533  2 -10.12  -9.49  -7.90  -6.22  -4.95  -1.61   2.91   6.12  23.09  29.02
         32.98  42.19  52.56  64.57  73.16
 534  1 -12.71 -12.48 -11.67 -10.20  -9.43  -5.30   2.86   5.03  19.59  29.47
         34.67  42.25  53.32  55.99  71.99
 534  2 -10.49  -9.28  -8.50  -6.02  -5.12  -2.53   4.51   6.08  20.30  31.11
         36.01  43.66  55.87  57.30  73.85
 535  1 -13.06 -12.28 -11.40 -10.19  -9.70  -6.29   2.80   8.51  14.81  34.28
         38.46  45.30  52.86  63.71  88.87
 535  2 -11.02  -9.21  -8.78  -5.61  -4.95  -3.22   4.43   9.43  15.38  35.52
         39.91  46.89  54.26  65.23  91.01
 536  1 -13.21 -12.39 -10.99 -10.08  -9.99  -6.65   2.74   9.93  14.76  34.65
         39.05  49.06  52.20  68.00 154.33
 536  2 -11.23  -9.25  -8.82  -5.31  -4.90  -3.54   4.35  10.74  15.35  35.71
         40.63  50.70  53.51  69.32 155.34
 537  1 -13.06 -12.29 -11.40 -10.19  -9.70  -6.29   2.80   8.51  14.81  34.28
         38.46  45.30  52.86  63.72  88.87
 537  2 -11.02  -9.21  -8.79  -5.60  -4.94  -3.23   4.43   9.43  15.38  35.52
         39.91  46.89  54.26  65.23  91.01
 538  1 -12.70 -12.48 -11.67 -10.20  -9.43  -5.30   2.85   5.03  19.59  29.47
         34.67  42.25  53.32  55.99  71.99
 538  2 -10.49  -9.28  -8.51  -6.01  -5.11  -2.53   4.51   6.08  20.30  31.11
         36.01  43.66  55.87  57.30  73.85
 539  1 -13.00 -12.65 -11.27 -10.10  -9.06  -3.74   1.28   5.10  21.51  27.67
         31.49  41.04  50.53  63.08  71.10
 539  2 -10.12  -9.49  -7.91  -6.21  -4.94  -1.61   2.91   6.11  23.09  29.02
         32.98  42.19  52.56  64.57  73.16
 540  1 -13.27 -13.06 -10.44 -10.03  -8.86  -1.92   0.34   5.11  17.32  24.04
         36.05  43.58  44.70  65.45  70.61
 540  2  -9.98  -9.93  -6.86  -6.35  -4.69  -0.42   1.91   5.82  19.32  25.83
         36.94  45.85  46.11  66.68  72.65
 541  1 -13.62 -13.60  -9.42  -9.29  -8.93   0.60   1.30   2.88  14.83  16.85
         22.45  43.81  56.45  62.21  62.94
 541  2 -10.28 -10.22  -5.50  -5.37  -4.78   1.37   2.09   3.34  17.18  19.00
         23.80  46.84  57.63  63.51  64.15
 542  1 -13.31 -13.29 -10.31  -9.51  -9.06  -1.59   2.12   2.89  17.91  20.90
         33.62  40.61  51.74  60.83  65.15
 542  2 -10.14  -9.89  -6.76  -5.65  -4.97  -0.13   3.21   3.81  19.96  22.71
         34.32  43.19  53.58  62.07  66.57
 543  1 -13.00 -12.65 -11.28 -10.10  -9.06  -3.74   1.28   5.10  21.51  27.67
         31.49  41.04  50.53  63.07  71.10
 543  2 -10.12  -9.49  -7.90  -6.22  -4.95  -1.60   2.91   6.11  23.09  29.02
         32.98  42.19  52.56  64.57  73.16
 544  1 -13.22 -11.99 -11.60 -10.31  -9.07  -5.64   0.59   8.76  19.13  28.26
         35.05  39.71  53.89  68.59  89.35
 544  2 -10.75  -8.95  -8.61  -6.01  -4.84  -2.99   2.54   9.64  19.84  29.76
         36.41  41.31  55.29  69.93  91.77
 545  1 -13.58 -12.35 -10.45 -10.11  -9.39  -6.97   0.43  12.84  14.51  27.74
         31.71  47.70  55.46  71.83 145.41
 545  2 -11.33  -9.13  -8.26  -5.50  -4.84  -3.97   2.48  13.56  14.97  28.90
         33.16  49.33  56.79  73.16 146.08
 546  1 -13.58 -12.35 -10.45 -10.11  -9.39  -6.97   0.43  12.84  14.51  27.74
         31.71  47.70  55.46  71.83 145.41
 546  2 -11.33  -9.13  -8.26  -5.50  -4.84  -3.97   2.48  13.56  14.97  28.90
         33.16  49.33  56.79  73.16 146.09
 547  1 -13.22 -11.99 -11.60 -10.31  -9.07  -5.64   0.59   8.77  19.13  28.25
         35.05  39.71  53.89  68.59  89.36
 547  2 -10.75  -8.96  -8.61  -6.01  -4.83  -3.00   2.54   9.64  19.83  29.76
         36.40  41.31  55.29  69.93  91.78
 548  1 -13.00 -12.65 -11.27 -10.10  -9.06  -3.74   1.28   5.10  21.51  27.67
         31.49  41.04  50.53  63.08  71.10
 548  2 -10.12  -9.49  -7.91  -6.21  -4.94  -1.61   2.91   6.11  23.09  29.02
         32.98  42.19  52.56  64.57  73.16
 549  1 -13.31 -13.29 -10.30  -9.51  -9.06  -1.59   2.11   2.89  17.91  20.90
         33.62  40.61  51.74  60.83  65.15
 549  2 -10.14  -9.89  -6.77  -5.64  -4.97  -0.13   3.21   3.80  19.96  22.71
         34.32  43.19  53.58  62.08  66.57
 550  1 -13.62 -13.60  -9.42  -9.29  -8.93   0.60   1.30   2.88  14.83  16.85
         22.45  43.81  56.45  62.21  62.94
 550  2 -10.28 -10.22  -5.51  -5.37  -4.77   1.37   2.09   3.34  17.18  19.00
         23.80  46.84  57.62  63.51  64.15
 551  1 -13.62 -13.60  -9.42  -9.29  -8.93   0.60   1.30   2.88  14.83  16.85
         22.45  43.81  56.45  62.21  62.94
 551  2 -10.28 -10.22  -5.51  -5.37  -4.77   1.37   2.09   3.34  17.18  19.00
         23.80  46.84  57.62  63.51  64.15
 552  1 -13.27 -13.06 -10.44 -10.03  -8.86  -1.92   0.34   5.11  17.32  24.04
         36.05  43.58  44.70  65.45  70.61
 552  2  -9.98  -9.93  -6.86  -6.35  -4.69  -0.42   1.91   5.82  19.32  25.83
         36.94  45.85  46.11  66.68  72.65
 553  1 -13.20 -12.16 -11.46 -10.46  -8.77  -4.42  -0.25   8.11  20.45  31.08
         33.90  34.06  53.34  69.11  99.92
 553  2 -10.38  -9.27  -8.08  -6.43  -4.58  -2.33   1.81   8.91  21.78  32.60
         35.25  35.54  54.67  70.39 102.65
 554  1 -13.57 -12.17 -10.94 -10.27  -8.70  -6.64  -0.44  11.45  18.73  26.62
         28.60  44.19  55.96  72.65 136.15
 554  2 -11.14  -8.89  -8.41  -5.79  -4.49  -4.02   1.83  12.18  19.26  27.91
         30.09  45.82  57.24  73.97 137.14
 555  1 -13.78 -12.42 -10.09  -9.98  -8.67  -7.94  -0.41  13.52  15.35  23.31
         28.01  49.05  56.64  74.17 136.50
 555  2 -11.46  -9.18  -7.85  -5.45  -4.86  -4.46   1.89  14.10  15.47  24.75
         29.34  50.69  57.97  75.51 137.08
 556  1 -13.57 -12.17 -10.94 -10.27  -8.70  -6.64  -0.44  11.45  18.73  26.62
         28.60  44.19  55.96  72.65 136.15
 556  2 -11.14  -8.89  -8.41  -5.79  -4.49  -4.02   1.83  12.18  19.26  27.91
         30.09  45.82  57.24  73.97 137.14
 557  1 -13.20 -12.16 -11.46 -10.46  -8.77  -4.42  -0.25   8.11  20.45  31.08
         33.90  34.06  53.34  69.11  99.92
 557  2 -10.38  -9.27  -8.08  -6.43  -4.58  -2.33   1.81   8.91  21.78  32.60
         35.25  35.54  54.67  70.39 102.65
 558  1 -13.27 -13.06 -10.44 -10.03  -8.86  -1.92   0.34   5.11  17.32  24.04
         36.05  43.58  44.70  65.45  70.61
 558  2  -9.98  -9.93  -6.86  -6.35  -4.69  -0.42   1.91   5.82  19.32  25.83
         36.94  45.85  46.11  66.68  72.65
 559  1 -13.62 -13.60  -9.42  -9.29  -8.93   0.60   1.30   2.88  14.83  16.85
         22.45  43.81  56.45  62.21  62.94
 559  2 -10.28 -10.22  -5.51  -5.37  -4.77   1.37   2.09   3.34  17.18  19.00
         23.80  46.84  57.62  63.51  64.15
 560  1 -13.78 -13.78  -8.96  -8.96  -8.95   2.01   2.01   2.01  13.83  13.83
         15.44  45.50  62.07  62.07  62.07
 560  2 -10.38 -10.38  -4.82  -4.80  -4.80   2.26   2.26   2.26  16.34  16.34
         17.18  48.62  63.27  63.28  63.28
siesta: Fermi energy =      -8.041690 eV

siesta: Program's energy decomposition (eV):
siesta: Ebs     =       -86.448395
siesta: Eions   =       638.104896
siesta: Ena     =         8.555986
siesta: Ekin    =       704.143659
siesta: Enl     =      -485.351848
siesta: DEna    =         0.643953
siesta: DUscf   =         0.037596
siesta: DUext   =         0.000000
siesta: Exc     =      -157.849318
siesta: eta*DQ  =         0.000000
siesta: Emadel  =         0.000000
siesta: Emeta   =         0.000000
siesta: Emolmec =         0.000000
siesta: Ekinion =         0.000000
siesta: Eharris =      -567.924885
siesta: Etot    =      -567.924870
siesta: FreeEng =      -567.926723

siesta: Final energy (eV):
siesta:  Band Struct. =     -86.448395
siesta:       Kinetic =     704.143659
siesta:       Hartree =      73.120385
siesta:    Ext. field =       0.000000
siesta:   Exch.-corr. =    -157.849318
siesta:  Ion-electron =    -776.124640
siesta:       Ion-ion =    -411.214955
siesta:       Ekinion =       0.000000
siesta:         Total =    -567.924870

siesta: Stress tensor (static) (eV/Ang**3):
siesta:    -0.192597    0.000309    0.000534
siesta:     0.000309   -0.192378    0.000756
siesta:     0.000534    0.000756   -0.191505

siesta: Cell volume =         11.196570 Ang**3

siesta: Pressure (static):
siesta:                Solid            Molecule  Units
siesta:           0.00209287          0.00209287  Ry/Bohr**3
siesta:           0.19215990          0.19215990  eV/Ang**3
siesta:         307.87743707        307.87743707  kBar
(Free)E+ p_basis*V_orbitals  =        -566.941597
(Free)Eharris+ p_basis*V_orbitals  =        -566.941606

siesta: Total spin polarization (Qup-Qdown) =    2.669745

* Maximum dynamic memory allocated : Node    0 =    43 MB

* Maximum memory occured during dfscf                         

timer: CPU execution times:
timer:  Routine       Calls   Time/call    Tot.time        %
timer:  siesta            1     613.176     613.176   100.00
timer:  Setup             1       0.256       0.256     0.04
timer:  bands             1       0.000       0.000     0.00
timer:  writewave         1       0.004       0.004     0.00
timer:  KSV_init          1       0.000       0.000     0.00
timer:  IterMD            1     612.624     612.624    99.91
timer:  hsparse           1       0.232       0.232     0.04
timer:  overlap           1       0.580       0.580     0.09
timer:  IterSCF          42      14.271     599.368    97.75
timer:  kinefsm           2       0.290       0.580     0.09
timer:  nlefsm            2       6.908      13.816     2.25
timer:  DHSCF            43       3.219     138.408    22.57
timer:  DHSCF1            1       0.432       0.432     0.07
timer:  DHSCF2            1      10.496      10.496     1.71
timer:  REORD           389       0.000       0.012     0.00
timer:  POISON           44       0.001       0.044     0.01
timer:  DHSCF3           43       2.896     124.548    20.31
timer:  rhoofd           43       1.292      55.572     9.06
timer:  cellXC           43       0.080       3.448     0.56
timer:  vmat             43       1.522      65.432    10.67
timer:  MolMec            2       0.000       0.000     0.00
timer:  diagon           42      10.908     458.132    74.71
timer:  c-eigval      47040       0.003     145.140    23.67
timer:  c-buildHS     47040       0.003     139.808    22.80
timer:  cdiag         94080       0.000      14.381     2.35
timer:  cdiag1        94080       0.000       0.964     0.16
timer:  cdiag2        94080       0.000       2.092     0.34
timer:  cdiag3        94080       0.000       8.721     1.42
timer:  cdiag4        94080       0.000       0.584     0.10
timer:  c-eigvec      47040       0.003     149.542    24.39
timer:  c-buildD      47040       0.003     160.966    26.25
timer:  DHSCF4            1       2.916       2.916     0.48
timer:  dfscf             1       2.056       2.056     0.34
timer:  overfsm           1       0.028       0.028     0.00
timer:  optical           1       0.000       0.000     0.00
  

elaps: ELAPSED times:
elaps:  Routine       Calls   Time/call    Tot.time        %
elaps:  siesta            1     616.052     616.052   100.00
elaps:  Setup             1       0.496       0.496     0.08
elaps:  bands             1       0.000       0.000     0.00
elaps:  writewave         1       0.001       0.001     0.00
elaps:  KSV_init          1       0.000       0.000     0.00
elaps:  IterMD            1     614.999     614.999    99.83
elaps:  hsparse           1       0.245       0.245     0.04
elaps:  overlap           1       0.589       0.589     0.10
elaps:  IterSCF          42      14.326     601.690    97.67
elaps:  kinefsm           2       0.306       0.611     0.10
elaps:  nlefsm            2       6.912      13.824     2.24
elaps:  DHSCF            43       3.230     138.895    22.55
elaps:  DHSCF1            1       0.448       0.448     0.07
elaps:  DHSCF2            1      10.512      10.512     1.71
elaps:  REORD           389       0.000       0.015     0.00
elaps:  POISON           44       0.002       0.075     0.01
elaps:  DHSCF3           43       2.907     124.993    20.29
elaps:  rhoofd           43       1.295      55.686     9.04
elaps:  cellXC           43       0.080       3.438     0.56
elaps:  vmat             43       1.529      65.751    10.67
elaps:  MolMec            2       0.000       0.000     0.00
elaps:  diagon           42      10.950     459.893    74.65
elaps:  c-eigval      47040       0.003     145.811    23.67
elaps:  c-buildHS     47040       0.003     140.495    22.81
elaps:  cdiag         94080       0.000      14.282     2.32
elaps:  cdiag1        94080       0.000       0.989     0.16
elaps:  cdiag2        94080       0.000       2.115     0.34
elaps:  cdiag3        94080       0.000       8.659     1.41
elaps:  cdiag4        94080       0.000       0.543     0.09
elaps:  c-eigvec      47040       0.003     150.497    24.43
elaps:  c-buildD      47040       0.003     161.029    26.14
elaps:  DHSCF4            1       2.920       2.920     0.47
elaps:  dfscf             1       2.058       2.058     0.33
elaps:  overfsm           1       0.027       0.027     0.00
elaps:  optical           1       0.002       0.002     0.00
  
>> End of run:   4-MAY-2014  19:21:41
